version 3
run HeavyTraffic-0-20260308-06:25:48-14588
attr configname HeavyTraffic
attr datetime 20260308-06:25:48
attr datetimef 20260308-062548
attr experiment HeavyTraffic
attr inifile omnetpp.ini
attr iterationvars ""
attr iterationvarsd ""
attr iterationvarsf ""
attr measurement ""
attr network DNP3NetworkTopology
attr processid 14588
attr repetition 0
attr replication #0
attr resultdir results
attr runnumber 0
attr seedset 0
config image-path ../../inet4.5/images
config description "Heavy burst traffic scenario"
config *.numMeters 50
config *.distAuto.numMeters 50
config **.eventInterval 1s
config **.eventBytes 542
config network DNP3NetworkTopology
config sim-time-limit 200s
config output-scalar-file HeavyTraffic.sca
config output-vector-file HeavyTraffic.vec
config **.scalar-recording true
config **.vector-recording true
config **.result-recording-modes all
config *.distAuto.processingDelay 10ms
config **.totalPackets 200
config **.ackTimeout 2s
config *.meter[*].meterId index

vector 0 DNP3NetworkTopology.meter[0].interface$o.channel busy:vector ETV
attr interpolationmode sample-hold
attr recordingmode vector
attr source channelBusy
vector 1 DNP3NetworkTopology.concentrator.MeterInterface$o[0].channel busy:vector ETV
attr interpolationmode sample-hold
attr recordingmode vector
attr source channelBusy
vector 2 DNP3NetworkTopology.meter[1].interface$o.channel busy:vector ETV
attr interpolationmode sample-hold
attr recordingmode vector
attr source channelBusy
vector 3 DNP3NetworkTopology.concentrator.MeterInterface$o[1].channel busy:vector ETV
attr interpolationmode sample-hold
attr recordingmode vector
attr source channelBusy
vector 4 DNP3NetworkTopology.meter[2].interface$o.channel busy:vector ETV
attr interpolationmode sample-hold
attr recordingmode vector
attr source channelBusy
vector 5 DNP3NetworkTopology.concentrator.MeterInterface$o[2].channel busy:vector ETV
attr interpolationmode sample-hold
attr recordingmode vector
attr source channelBusy
vector 6 DNP3NetworkTopology.meter[3].interface$o.channel busy:vector ETV
attr interpolationmode sample-hold
attr recordingmode vector
attr source channelBusy
vector 7 DNP3NetworkTopology.concentrator.MeterInterface$o[3].channel busy:vector ETV
attr interpolationmode sample-hold
attr recordingmode vector
attr source channelBusy
vector 8 DNP3NetworkTopology.meter[4].interface$o.channel busy:vector ETV
attr interpolationmode sample-hold
attr recordingmode vector
attr source channelBusy
vector 9 DNP3NetworkTopology.concentrator.MeterInterface$o[4].channel busy:vector ETV
attr interpolationmode sample-hold
attr recordingmode vector
attr source channelBusy
vector 10 DNP3NetworkTopology.meter[5].interface$o.channel busy:vector ETV
attr interpolationmode sample-hold
attr recordingmode vector
attr source channelBusy
vector 11 DNP3NetworkTopology.concentrator.MeterInterface$o[5].channel busy:vector ETV
attr interpolationmode sample-hold
attr recordingmode vector
attr source channelBusy
vector 12 DNP3NetworkTopology.meter[6].interface$o.channel busy:vector ETV
attr interpolationmode sample-hold
attr recordingmode vector
attr source channelBusy
vector 13 DNP3NetworkTopology.concentrator.MeterInterface$o[6].channel busy:vector ETV
attr interpolationmode sample-hold
attr recordingmode vector
attr source channelBusy
vector 14 DNP3NetworkTopology.meter[7].interface$o.channel busy:vector ETV
attr interpolationmode sample-hold
attr recordingmode vector
attr source channelBusy
vector 15 DNP3NetworkTopology.concentrator.MeterInterface$o[7].channel busy:vector ETV
attr interpolationmode sample-hold
attr recordingmode vector
attr source channelBusy
vector 16 DNP3NetworkTopology.meter[8].interface$o.channel busy:vector ETV
attr interpolationmode sample-hold
attr recordingmode vector
attr source channelBusy
vector 17 DNP3NetworkTopology.concentrator.MeterInterface$o[8].channel busy:vector ETV
attr interpolationmode sample-hold
attr recordingmode vector
attr source channelBusy
vector 18 DNP3NetworkTopology.meter[9].interface$o.channel busy:vector ETV
attr interpolationmode sample-hold
attr recordingmode vector
attr source channelBusy
vector 19 DNP3NetworkTopology.concentrator.MeterInterface$o[9].channel busy:vector ETV
attr interpolationmode sample-hold
attr recordingmode vector
attr source channelBusy
vector 20 DNP3NetworkTopology.meter[10].interface$o.channel busy:vector ETV
attr interpolationmode sample-hold
attr recordingmode vector
attr source channelBusy
vector 21 DNP3NetworkTopology.concentrator.MeterInterface$o[10].channel busy:vector ETV
attr interpolationmode sample-hold
attr recordingmode vector
attr source channelBusy
vector 22 DNP3NetworkTopology.meter[11].interface$o.channel busy:vector ETV
attr interpolationmode sample-hold
attr recordingmode vector
attr source channelBusy
vector 23 DNP3NetworkTopology.concentrator.MeterInterface$o[11].channel busy:vector ETV
attr interpolationmode sample-hold
attr recordingmode vector
attr source channelBusy
vector 24 DNP3NetworkTopology.meter[12].interface$o.channel busy:vector ETV
attr interpolationmode sample-hold
attr recordingmode vector
attr source channelBusy
vector 25 DNP3NetworkTopology.concentrator.MeterInterface$o[12].channel busy:vector ETV
attr interpolationmode sample-hold
attr recordingmode vector
attr source channelBusy
vector 26 DNP3NetworkTopology.meter[13].interface$o.channel busy:vector ETV
attr interpolationmode sample-hold
attr recordingmode vector
attr source channelBusy
vector 27 DNP3NetworkTopology.concentrator.MeterInterface$o[13].channel busy:vector ETV
attr interpolationmode sample-hold
attr recordingmode vector
attr source channelBusy
vector 28 DNP3NetworkTopology.meter[14].interface$o.channel busy:vector ETV
attr interpolationmode sample-hold
attr recordingmode vector
attr source channelBusy
vector 29 DNP3NetworkTopology.concentrator.MeterInterface$o[14].channel busy:vector ETV
attr interpolationmode sample-hold
attr recordingmode vector
attr source channelBusy
vector 30 DNP3NetworkTopology.meter[15].interface$o.channel busy:vector ETV
attr interpolationmode sample-hold
attr recordingmode vector
attr source channelBusy
vector 31 DNP3NetworkTopology.concentrator.MeterInterface$o[15].channel busy:vector ETV
attr interpolationmode sample-hold
attr recordingmode vector
attr source channelBusy
vector 32 DNP3NetworkTopology.meter[16].interface$o.channel busy:vector ETV
attr interpolationmode sample-hold
attr recordingmode vector
attr source channelBusy
vector 33 DNP3NetworkTopology.concentrator.MeterInterface$o[16].channel busy:vector ETV
attr interpolationmode sample-hold
attr recordingmode vector
attr source channelBusy
vector 34 DNP3NetworkTopology.meter[17].interface$o.channel busy:vector ETV
attr interpolationmode sample-hold
attr recordingmode vector
attr source channelBusy
vector 35 DNP3NetworkTopology.concentrator.MeterInterface$o[17].channel busy:vector ETV
attr interpolationmode sample-hold
attr recordingmode vector
attr source channelBusy
vector 36 DNP3NetworkTopology.meter[18].interface$o.channel busy:vector ETV
attr interpolationmode sample-hold
attr recordingmode vector
attr source channelBusy
vector 37 DNP3NetworkTopology.concentrator.MeterInterface$o[18].channel busy:vector ETV
attr interpolationmode sample-hold
attr recordingmode vector
attr source channelBusy
vector 38 DNP3NetworkTopology.meter[19].interface$o.channel busy:vector ETV
attr interpolationmode sample-hold
attr recordingmode vector
attr source channelBusy
vector 39 DNP3NetworkTopology.concentrator.MeterInterface$o[19].channel busy:vector ETV
attr interpolationmode sample-hold
attr recordingmode vector
attr source channelBusy
vector 40 DNP3NetworkTopology.meter[20].interface$o.channel busy:vector ETV
attr interpolationmode sample-hold
attr recordingmode vector
attr source channelBusy
vector 41 DNP3NetworkTopology.concentrator.MeterInterface$o[20].channel busy:vector ETV
attr interpolationmode sample-hold
attr recordingmode vector
attr source channelBusy
vector 42 DNP3NetworkTopology.meter[21].interface$o.channel busy:vector ETV
attr interpolationmode sample-hold
attr recordingmode vector
attr source channelBusy
vector 43 DNP3NetworkTopology.concentrator.MeterInterface$o[21].channel busy:vector ETV
attr interpolationmode sample-hold
attr recordingmode vector
attr source channelBusy
vector 44 DNP3NetworkTopology.meter[22].interface$o.channel busy:vector ETV
attr interpolationmode sample-hold
attr recordingmode vector
attr source channelBusy
vector 45 DNP3NetworkTopology.concentrator.MeterInterface$o[22].channel busy:vector ETV
attr interpolationmode sample-hold
attr recordingmode vector
attr source channelBusy
vector 46 DNP3NetworkTopology.meter[23].interface$o.channel busy:vector ETV
attr interpolationmode sample-hold
attr recordingmode vector
attr source channelBusy
vector 47 DNP3NetworkTopology.concentrator.MeterInterface$o[23].channel busy:vector ETV
attr interpolationmode sample-hold
attr recordingmode vector
attr source channelBusy
vector 48 DNP3NetworkTopology.meter[24].interface$o.channel busy:vector ETV
attr interpolationmode sample-hold
attr recordingmode vector
attr source channelBusy
vector 49 DNP3NetworkTopology.concentrator.MeterInterface$o[24].channel busy:vector ETV
attr interpolationmode sample-hold
attr recordingmode vector
attr source channelBusy
vector 50 DNP3NetworkTopology.meter[25].interface$o.channel busy:vector ETV
attr interpolationmode sample-hold
attr recordingmode vector
attr source channelBusy
vector 51 DNP3NetworkTopology.concentrator.MeterInterface$o[25].channel busy:vector ETV
attr interpolationmode sample-hold
attr recordingmode vector
attr source channelBusy
vector 52 DNP3NetworkTopology.meter[26].interface$o.channel busy:vector ETV
attr interpolationmode sample-hold
attr recordingmode vector
attr source channelBusy
vector 53 DNP3NetworkTopology.concentrator.MeterInterface$o[26].channel busy:vector ETV
attr interpolationmode sample-hold
attr recordingmode vector
attr source channelBusy
vector 54 DNP3NetworkTopology.meter[27].interface$o.channel busy:vector ETV
attr interpolationmode sample-hold
attr recordingmode vector
attr source channelBusy
vector 55 DNP3NetworkTopology.concentrator.MeterInterface$o[27].channel busy:vector ETV
attr interpolationmode sample-hold
attr recordingmode vector
attr source channelBusy
vector 56 DNP3NetworkTopology.meter[28].interface$o.channel busy:vector ETV
attr interpolationmode sample-hold
attr recordingmode vector
attr source channelBusy
vector 57 DNP3NetworkTopology.concentrator.MeterInterface$o[28].channel busy:vector ETV
attr interpolationmode sample-hold
attr recordingmode vector
attr source channelBusy
vector 58 DNP3NetworkTopology.meter[29].interface$o.channel busy:vector ETV
attr interpolationmode sample-hold
attr recordingmode vector
attr source channelBusy
vector 59 DNP3NetworkTopology.concentrator.MeterInterface$o[29].channel busy:vector ETV
attr interpolationmode sample-hold
attr recordingmode vector
attr source channelBusy
vector 60 DNP3NetworkTopology.meter[30].interface$o.channel busy:vector ETV
attr interpolationmode sample-hold
attr recordingmode vector
attr source channelBusy
vector 61 DNP3NetworkTopology.concentrator.MeterInterface$o[30].channel busy:vector ETV
attr interpolationmode sample-hold
attr recordingmode vector
attr source channelBusy
vector 62 DNP3NetworkTopology.meter[31].interface$o.channel busy:vector ETV
attr interpolationmode sample-hold
attr recordingmode vector
attr source channelBusy
vector 63 DNP3NetworkTopology.concentrator.MeterInterface$o[31].channel busy:vector ETV
attr interpolationmode sample-hold
attr recordingmode vector
attr source channelBusy
vector 64 DNP3NetworkTopology.meter[32].interface$o.channel busy:vector ETV
attr interpolationmode sample-hold
attr recordingmode vector
attr source channelBusy
vector 65 DNP3NetworkTopology.concentrator.MeterInterface$o[32].channel busy:vector ETV
attr interpolationmode sample-hold
attr recordingmode vector
attr source channelBusy
vector 66 DNP3NetworkTopology.meter[33].interface$o.channel busy:vector ETV
attr interpolationmode sample-hold
attr recordingmode vector
attr source channelBusy
vector 67 DNP3NetworkTopology.concentrator.MeterInterface$o[33].channel busy:vector ETV
attr interpolationmode sample-hold
attr recordingmode vector
attr source channelBusy
vector 68 DNP3NetworkTopology.meter[34].interface$o.channel busy:vector ETV
attr interpolationmode sample-hold
attr recordingmode vector
attr source channelBusy
vector 69 DNP3NetworkTopology.concentrator.MeterInterface$o[34].channel busy:vector ETV
attr interpolationmode sample-hold
attr recordingmode vector
attr source channelBusy
vector 70 DNP3NetworkTopology.meter[35].interface$o.channel busy:vector ETV
attr interpolationmode sample-hold
attr recordingmode vector
attr source channelBusy
vector 71 DNP3NetworkTopology.concentrator.MeterInterface$o[35].channel busy:vector ETV
attr interpolationmode sample-hold
attr recordingmode vector
attr source channelBusy
vector 72 DNP3NetworkTopology.meter[36].interface$o.channel busy:vector ETV
attr interpolationmode sample-hold
attr recordingmode vector
attr source channelBusy
vector 73 DNP3NetworkTopology.concentrator.MeterInterface$o[36].channel busy:vector ETV
attr interpolationmode sample-hold
attr recordingmode vector
attr source channelBusy
vector 74 DNP3NetworkTopology.meter[37].interface$o.channel busy:vector ETV
attr interpolationmode sample-hold
attr recordingmode vector
attr source channelBusy
vector 75 DNP3NetworkTopology.concentrator.MeterInterface$o[37].channel busy:vector ETV
attr interpolationmode sample-hold
attr recordingmode vector
attr source channelBusy
vector 76 DNP3NetworkTopology.meter[38].interface$o.channel busy:vector ETV
attr interpolationmode sample-hold
attr recordingmode vector
attr source channelBusy
vector 77 DNP3NetworkTopology.concentrator.MeterInterface$o[38].channel busy:vector ETV
attr interpolationmode sample-hold
attr recordingmode vector
attr source channelBusy
vector 78 DNP3NetworkTopology.meter[39].interface$o.channel busy:vector ETV
attr interpolationmode sample-hold
attr recordingmode vector
attr source channelBusy
vector 79 DNP3NetworkTopology.concentrator.MeterInterface$o[39].channel busy:vector ETV
attr interpolationmode sample-hold
attr recordingmode vector
attr source channelBusy
vector 80 DNP3NetworkTopology.meter[40].interface$o.channel busy:vector ETV
attr interpolationmode sample-hold
attr recordingmode vector
attr source channelBusy
vector 81 DNP3NetworkTopology.concentrator.MeterInterface$o[40].channel busy:vector ETV
attr interpolationmode sample-hold
attr recordingmode vector
attr source channelBusy
vector 82 DNP3NetworkTopology.meter[41].interface$o.channel busy:vector ETV
attr interpolationmode sample-hold
attr recordingmode vector
attr source channelBusy
vector 83 DNP3NetworkTopology.concentrator.MeterInterface$o[41].channel busy:vector ETV
attr interpolationmode sample-hold
attr recordingmode vector
attr source channelBusy
vector 84 DNP3NetworkTopology.meter[42].interface$o.channel busy:vector ETV
attr interpolationmode sample-hold
attr recordingmode vector
attr source channelBusy
vector 85 DNP3NetworkTopology.concentrator.MeterInterface$o[42].channel busy:vector ETV
attr interpolationmode sample-hold
attr recordingmode vector
attr source channelBusy
vector 86 DNP3NetworkTopology.meter[43].interface$o.channel busy:vector ETV
attr interpolationmode sample-hold
attr recordingmode vector
attr source channelBusy
vector 87 DNP3NetworkTopology.concentrator.MeterInterface$o[43].channel busy:vector ETV
attr interpolationmode sample-hold
attr recordingmode vector
attr source channelBusy
vector 88 DNP3NetworkTopology.meter[44].interface$o.channel busy:vector ETV
attr interpolationmode sample-hold
attr recordingmode vector
attr source channelBusy
vector 89 DNP3NetworkTopology.concentrator.MeterInterface$o[44].channel busy:vector ETV
attr interpolationmode sample-hold
attr recordingmode vector
attr source channelBusy
vector 90 DNP3NetworkTopology.meter[45].interface$o.channel busy:vector ETV
attr interpolationmode sample-hold
attr recordingmode vector
attr source channelBusy
vector 91 DNP3NetworkTopology.concentrator.MeterInterface$o[45].channel busy:vector ETV
attr interpolationmode sample-hold
attr recordingmode vector
attr source channelBusy
vector 92 DNP3NetworkTopology.meter[46].interface$o.channel busy:vector ETV
attr interpolationmode sample-hold
attr recordingmode vector
attr source channelBusy
vector 93 DNP3NetworkTopology.concentrator.MeterInterface$o[46].channel busy:vector ETV
attr interpolationmode sample-hold
attr recordingmode vector
attr source channelBusy
vector 94 DNP3NetworkTopology.meter[47].interface$o.channel busy:vector ETV
attr interpolationmode sample-hold
attr recordingmode vector
attr source channelBusy
vector 95 DNP3NetworkTopology.concentrator.MeterInterface$o[47].channel busy:vector ETV
attr interpolationmode sample-hold
attr recordingmode vector
attr source channelBusy
vector 96 DNP3NetworkTopology.meter[48].interface$o.channel busy:vector ETV
attr interpolationmode sample-hold
attr recordingmode vector
attr source channelBusy
vector 97 DNP3NetworkTopology.concentrator.MeterInterface$o[48].channel busy:vector ETV
attr interpolationmode sample-hold
attr recordingmode vector
attr source channelBusy
vector 98 DNP3NetworkTopology.meter[49].interface$o.channel busy:vector ETV
attr interpolationmode sample-hold
attr recordingmode vector
attr source channelBusy
vector 99 DNP3NetworkTopology.concentrator.MeterInterface$o[49].channel busy:vector ETV
attr interpolationmode sample-hold
attr recordingmode vector
attr source channelBusy
vector 100 DNP3NetworkTopology.concentrator.DAInterface$o.channel busy:vector ETV
attr interpolationmode sample-hold
attr recordingmode vector
attr source channelBusy
vector 101 DNP3NetworkTopology.distAuto.interface$o.channel busy:vector ETV
attr interpolationmode sample-hold
attr recordingmode vector
attr source channelBusy
0	0	0	0
0	1	0	0
0	1	1	1
0	108	1.066707692308	0
0	108	1.149596153846	1
0	284	1.156734615384	0
0	284	2	1
0	588	2.066707692308	0
0	588	2.941221153846	1
0	601	2.948359615384	0
0	601	3	1
0	899	3.066707692308	0
0	899	3.916221153846	1
0	916	3.923359615384	0
0	916	4	1
0	1220	4.066707692308	0
0	1220	4.932346153846	1
0	1234	4.939484615384	0
0	1234	5	1
0	1529	5.066707692308	0
0	1529	5.903721153846	1
0	1550	5.910859615384	0
0	1550	6	1
0	1849	6.066707692308	0
0	1849	6.916221153846	1
0	1866	6.923359615384	0
0	1866	7	1
0	2170	7.066707692308	0
0	2170	7.932346153846	1
0	2184	7.939484615384	0
0	2184	8	1
0	2479	8.066707692308	0
0	2479	8.903721153846	1
0	2500	8.910859615384	0
0	2500	9	1
0	2799	9.066707692308	0
0	2799	9.916221153846	1
0	2816	9.923359615384	0
0	2816	10	1
0	3120	10.066707692308	0
0	3120	10.932346153846	1
0	3134	10.939484615384	0
0	3134	11	1
0	3429	11.066707692308	0
0	3429	11.903721153846	1
0	3450	11.910859615384	0
0	3450	12	1
0	3749	12.066707692308	0
0	3749	12.916221153846	1
0	3766	12.923359615384	0
0	3766	13	1
0	4070	13.066707692308	0
0	4070	13.932346153846	1
0	4084	13.939484615384	0
0	4084	14	1
0	4379	14.066707692308	0
0	4379	14.903721153846	1
0	4400	14.910859615384	0
0	4400	15	1
0	4699	15.066707692308	0
0	4699	15.916221153846	1
0	4716	15.923359615384	0
0	4716	16	1
0	5020	16.066707692308	0
0	5020	16.932346153846	1
0	5034	16.939484615384	0
0	5034	17	1
0	5329	17.066707692308	0
0	5329	17.903721153846	1
0	5350	17.910859615384	0
0	5350	18	1
0	5649	18.066707692308	0
0	5649	18.916221153846	1
0	5666	18.923359615384	0
0	5666	19	1
0	5970	19.066707692308	0
0	5970	19.932346153846	1
0	5984	19.939484615384	0
0	5984	20	1
0	6279	20.066707692308	0
0	6279	20.903721153846	1
0	6300	20.910859615384	0
0	6300	21	1
0	6599	21.066707692308	0
0	6599	21.916221153846	1
0	6616	21.923359615384	0
0	6616	22	1
0	6920	22.066707692308	0
0	6920	22.932346153846	1
0	6934	22.939484615384	0
0	6934	23	1
0	7229	23.066707692308	0
0	7229	23.903721153846	1
0	7250	23.910859615384	0
0	7250	24	1
0	7549	24.066707692308	0
0	7549	24.916221153846	1
0	7566	24.923359615384	0
0	7566	25	1
0	7870	25.066707692308	0
0	7870	25.932346153846	1
0	7884	25.939484615384	0
0	7884	26	1
0	8179	26.066707692308	0
0	8179	26.903721153846	1
0	8200	26.910859615384	0
0	8200	27	1
0	8499	27.066707692308	0
0	8499	27.916221153846	1
0	8516	27.923359615384	0
0	8516	28	1
0	8820	28.066707692308	0
0	8820	28.932346153846	1
0	8834	28.939484615384	0
0	8834	29	1
0	9129	29.066707692308	0
0	9129	29.903721153846	1
0	9150	29.910859615384	0
0	9150	30	1
0	9449	30.066707692308	0
0	9449	30.916221153846	1
0	9466	30.923359615384	0
0	9466	31	1
0	9770	31.066707692308	0
0	9770	31.932346153846	1
0	9784	31.939484615384	0
0	9784	32	1
0	10079	32.066707692308	0
0	10079	32.903721153846	1
0	10100	32.910859615384	0
0	10100	33	1
0	10399	33.066707692308	0
0	10399	33.916221153846	1
0	10416	33.923359615384	0
0	10416	34	1
0	10720	34.066707692308	0
0	10720	34.932346153846	1
0	10734	34.939484615384	0
0	10734	35	1
0	11029	35.066707692308	0
0	11029	35.903721153846	1
0	11050	35.910859615384	0
0	11050	36	1
0	11349	36.066707692308	0
0	11349	36.916221153846	1
0	11366	36.923359615384	0
0	11366	37	1
0	11670	37.066707692308	0
0	11670	37.932346153846	1
0	11684	37.939484615384	0
0	11684	38	1
0	11979	38.066707692308	0
0	11979	38.903721153846	1
0	12000	38.910859615384	0
0	12000	39	1
0	12299	39.066707692308	0
0	12299	39.916221153846	1
0	12316	39.923359615384	0
0	12316	40	1
0	12620	40.066707692308	0
0	12620	40.932346153846	1
0	12634	40.939484615384	0
0	12634	41	1
0	12929	41.066707692308	0
0	12929	41.903721153846	1
0	12950	41.910859615384	0
0	12950	42	1
0	13249	42.066707692308	0
0	13249	42.916221153846	1
0	13266	42.923359615384	0
0	13266	43	1
0	13570	43.066707692308	0
0	13570	43.932346153846	1
0	13584	43.939484615384	0
0	13584	44	1
0	13879	44.066707692308	0
0	13879	44.903721153846	1
0	13900	44.910859615384	0
0	13900	45	1
0	14199	45.066707692308	0
0	14199	45.916221153846	1
0	14216	45.923359615384	0
0	14216	46	1
0	14520	46.066707692308	0
0	14520	46.932346153846	1
0	14534	46.939484615384	0
0	14534	47	1
0	14829	47.066707692308	0
0	14829	47.903721153846	1
0	14850	47.910859615384	0
0	14850	48	1
0	15149	48.066707692308	0
0	15149	48.916221153846	1
0	15166	48.923359615384	0
0	15166	49	1
0	15470	49.066707692308	0
0	15470	49.932346153846	1
0	15484	49.939484615384	0
0	15484	50	1
0	15779	50.066707692308	0
0	15779	50.903721153846	1
0	15800	50.910859615384	0
0	15800	51	1
0	16099	51.066707692308	0
0	16099	51.916221153846	1
0	16116	51.923359615384	0
0	16116	52	1
0	16420	52.066707692308	0
0	16420	52.932346153846	1
0	16434	52.939484615384	0
0	16434	53	1
0	16729	53.066707692308	0
0	16729	53.903721153846	1
0	16750	53.910859615384	0
0	16750	54	1
0	17049	54.066707692308	0
0	17049	54.916221153846	1
0	17066	54.923359615384	0
0	17066	55	1
0	17370	55.066707692308	0
0	17370	55.932346153846	1
0	17384	55.939484615384	0
0	17384	56	1
0	17679	56.066707692308	0
0	17679	56.903721153846	1
0	17700	56.910859615384	0
0	17700	57	1
0	17999	57.066707692308	0
0	17999	57.916221153846	1
0	18016	57.923359615384	0
0	18016	58	1
0	18320	58.066707692308	0
0	18320	58.932346153846	1
0	18334	58.939484615384	0
0	18334	59	1
0	18629	59.066707692308	0
0	18629	59.903721153846	1
0	18650	59.910859615384	0
0	18650	60	1
0	18949	60.066707692308	0
0	18949	60.916221153846	1
0	18966	60.923359615384	0
0	18966	61	1
0	19270	61.066707692308	0
0	19270	61.932346153846	1
0	19284	61.939484615384	0
0	19284	62	1
0	19579	62.066707692308	0
0	19579	62.903721153846	1
0	19600	62.910859615384	0
0	19600	63	1
0	19899	63.066707692308	0
0	19899	63.916221153846	1
0	19916	63.923359615384	0
0	19916	64	1
0	20220	64.066707692308	0
0	20220	64.932346153846	1
0	20234	64.939484615384	0
0	20234	65	1
0	20529	65.066707692308	0
0	20529	65.903721153846	1
0	20550	65.910859615384	0
0	20550	66	1
0	20849	66.066707692308	0
0	20849	66.916221153846	1
0	20866	66.923359615384	0
0	20866	67	1
0	21170	67.066707692308	0
0	21170	67.932346153846	1
0	21184	67.939484615384	0
0	21184	68	1
0	21479	68.066707692308	0
0	21479	68.903721153846	1
0	21500	68.910859615384	0
0	21500	69	1
0	21799	69.066707692308	0
0	21799	69.916221153846	1
0	21816	69.923359615384	0
0	21816	70	1
0	22120	70.066707692308	0
0	22120	70.932346153846	1
0	22134	70.939484615384	0
0	22134	71	1
0	22429	71.066707692308	0
0	22429	71.903721153846	1
0	22450	71.910859615384	0
0	22450	72	1
0	22749	72.066707692308	0
0	22749	72.916221153846	1
0	22766	72.923359615384	0
0	22766	73	1
0	23070	73.066707692308	0
0	23070	73.932346153846	1
0	23084	73.939484615384	0
0	23084	74	1
0	23379	74.066707692308	0
0	23379	74.903721153846	1
0	23400	74.910859615384	0
0	23400	75	1
0	23699	75.066707692308	0
0	23699	75.916221153846	1
0	23716	75.923359615384	0
0	23716	76	1
0	24020	76.066707692308	0
0	24020	76.932346153846	1
0	24034	76.939484615384	0
0	24034	77	1
0	24329	77.066707692308	0
0	24329	77.903721153846	1
0	24350	77.910859615384	0
0	24350	78	1
0	24649	78.066707692308	0
0	24649	78.916221153846	1
0	24666	78.923359615384	0
0	24666	79	1
0	24970	79.066707692308	0
0	24970	79.932346153846	1
0	24984	79.939484615384	0
0	24984	80	1
0	25279	80.066707692308	0
0	25279	80.903721153846	1
0	25300	80.910859615384	0
0	25300	81	1
0	25599	81.066707692308	0
0	25599	81.916221153846	1
0	25616	81.923359615384	0
0	25616	82	1
0	25920	82.066707692308	0
0	25920	82.932346153846	1
0	25934	82.939484615384	0
0	25934	83	1
0	26229	83.066707692308	0
0	26229	83.903721153846	1
0	26250	83.910859615384	0
0	26250	84	1
0	26549	84.066707692308	0
0	26549	84.916221153846	1
0	26566	84.923359615384	0
0	26566	85	1
0	26870	85.066707692308	0
0	26870	85.932346153846	1
0	26884	85.939484615384	0
0	26884	86	1
0	27179	86.066707692308	0
0	27179	86.903721153846	1
0	27200	86.910859615384	0
0	27200	87	1
0	27499	87.066707692308	0
0	27499	87.916221153846	1
0	27516	87.923359615384	0
0	27516	88	1
0	27820	88.066707692308	0
0	27820	88.932346153846	1
0	27834	88.939484615384	0
0	27834	89	1
0	28129	89.066707692308	0
0	28129	89.903721153846	1
0	28150	89.910859615384	0
0	28150	90	1
0	28449	90.066707692308	0
0	28449	90.916221153846	1
0	28466	90.923359615384	0
0	28466	91	1
0	28770	91.066707692308	0
0	28770	91.932346153846	1
0	28784	91.939484615384	0
0	28784	92	1
0	29079	92.066707692308	0
0	29079	92.903721153846	1
0	29100	92.910859615384	0
0	29100	93	1
0	29399	93.066707692308	0
0	29399	93.916221153846	1
0	29416	93.923359615384	0
0	29416	94	1
0	29720	94.066707692308	0
0	29720	94.932346153846	1
0	29734	94.939484615384	0
0	29734	95	1
0	30029	95.066707692308	0
0	30029	95.903721153846	1
0	30050	95.910859615384	0
0	30050	96	1
0	30349	96.066707692308	0
0	30349	96.916221153846	1
0	30366	96.923359615384	0
0	30366	97	1
0	30670	97.066707692308	0
0	30670	97.932346153846	1
0	30684	97.939484615384	0
0	30684	98	1
0	30979	98.066707692308	0
0	30979	98.903721153846	1
0	31000	98.910859615384	0
0	31000	99	1
0	31299	99.066707692308	0
0	31299	99.916221153846	1
0	31316	99.923359615384	0
0	31316	100	1
0	31620	100.066707692308	0
0	31620	100.932346153846	1
0	31634	100.939484615384	0
0	31634	101	1
0	31929	101.066707692308	0
0	31929	101.903721153846	1
0	31950	101.910859615384	0
0	31950	102	1
0	32249	102.066707692308	0
0	32249	102.916221153846	1
0	32266	102.923359615384	0
0	32266	103	1
0	32570	103.066707692308	0
0	32570	103.932346153846	1
0	32584	103.939484615384	0
0	32584	104	1
0	32879	104.066707692308	0
0	32879	104.903721153846	1
0	32900	104.910859615384	0
0	32900	105	1
0	33199	105.066707692308	0
0	33199	105.916221153846	1
0	33216	105.923359615384	0
0	33216	106	1
0	33520	106.066707692308	0
0	33520	106.932346153846	1
0	33534	106.939484615384	0
0	33534	107	1
0	33829	107.066707692308	0
0	33829	107.903721153846	1
0	33850	107.910859615384	0
0	33850	108	1
0	34149	108.066707692308	0
0	34149	108.916221153846	1
0	34166	108.923359615384	0
0	34166	109	1
0	34470	109.066707692308	0
0	34470	109.932346153846	1
0	34484	109.939484615384	0
0	34484	110	1
0	34779	110.066707692308	0
0	34779	110.903721153846	1
0	34800	110.910859615384	0
0	34800	111	1
0	35099	111.066707692308	0
0	35099	111.916221153846	1
0	35116	111.923359615384	0
0	35116	112	1
0	35420	112.066707692308	0
0	35420	112.932346153846	1
0	35434	112.939484615384	0
0	35434	113	1
0	35729	113.066707692308	0
0	35729	113.903721153846	1
0	35750	113.910859615384	0
0	35750	114	1
0	36049	114.066707692308	0
0	36049	114.916221153846	1
0	36066	114.923359615384	0
0	36066	115	1
0	36370	115.066707692308	0
0	36370	115.932346153846	1
0	36384	115.939484615384	0
0	36384	116	1
0	36679	116.066707692308	0
0	36679	116.903721153846	1
0	36700	116.910859615384	0
0	36700	117	1
0	36999	117.066707692308	0
0	36999	117.916221153846	1
0	37016	117.923359615384	0
0	37016	118	1
0	37320	118.066707692308	0
0	37320	118.932346153846	1
0	37334	118.939484615384	0
0	37334	119	1
0	37629	119.066707692308	0
0	37629	119.903721153846	1
0	37650	119.910859615384	0
0	37650	120	1
0	37949	120.066707692308	0
0	37949	120.916221153846	1
0	37966	120.923359615384	0
0	37966	121	1
0	38270	121.066707692308	0
0	38270	121.932346153846	1
0	38284	121.939484615384	0
0	38284	122	1
0	38579	122.066707692308	0
0	38579	122.903721153846	1
0	38600	122.910859615384	0
0	38600	123	1
0	38899	123.066707692308	0
0	38899	123.916221153846	1
0	38916	123.923359615384	0
0	38916	124	1
0	39220	124.066707692308	0
0	39220	124.932346153846	1
0	39234	124.939484615384	0
0	39234	125	1
0	39529	125.066707692308	0
0	39529	125.903721153846	1
0	39550	125.910859615384	0
0	39550	126	1
0	39849	126.066707692308	0
0	39849	126.916221153846	1
0	39866	126.923359615384	0
0	39866	127	1
0	40170	127.066707692308	0
0	40170	127.932346153846	1
0	40184	127.939484615384	0
0	40184	128	1
0	40479	128.066707692308	0
0	40479	128.903721153846	1
0	40500	128.910859615384	0
0	40500	129	1
0	40799	129.066707692308	0
0	40799	129.916221153846	1
0	40816	129.923359615384	0
0	40816	130	1
0	41120	130.066707692308	0
0	41120	130.932346153846	1
0	41134	130.939484615384	0
0	41134	131	1
0	41429	131.066707692308	0
0	41429	131.903721153846	1
0	41450	131.910859615384	0
0	41450	132	1
0	41749	132.066707692308	0
0	41749	132.916221153846	1
0	41766	132.923359615384	0
0	41766	133	1