version 3
run HeavyTraffic_25-0-20260420-12:47:57-26708
attr configname HeavyTraffic_25
attr datetime 20260420-12:47:57
attr datetimef 20260420-124757
attr experiment HeavyTraffic_25
attr inifile omnetpp.ini
attr iterationvars ""
attr iterationvarsd ""
attr iterationvarsf ""
attr measurement ""
attr network DNP3NetworkTopology
attr processid 26708
attr repetition 0
attr replication #0
attr resultdir results
attr runnumber 0
attr seedset 0
config image-path ../../samples/inet4.5/images
config description "Heavy traffic with 25 smart meters"
config *.numMeters 25
config *.distAuto.numMeters 25
config **.eventInterval 1s
config **.eventBytes 542
config network DNP3NetworkTopology
config sim-time-limit 350s
config output-scalar-file HeavyTraffic_25.sca
config output-vector-file HeavyTraffic_25.vec
config **.scalar-recording true
config **.vector-recording true
config **.result-recording-modes all
config *.distAuto.processingDelay 10ms
config **.totalPackets 500
config **.ackTimeout 2s
config **.stopGenerationTime 300s
config *.meter[*].meterId index

vector 0 DNP3NetworkTopology.meter[0].interface$o.channel busy:vector ETV
attr interpolationmode sample-hold
attr recordingmode vector
attr source channelBusy
vector 1 DNP3NetworkTopology.Concatenator.MeterInterface$o[0].channel busy:vector ETV
attr interpolationmode sample-hold
attr recordingmode vector
attr source channelBusy
vector 2 DNP3NetworkTopology.meter[1].interface$o.channel busy:vector ETV
attr interpolationmode sample-hold
attr recordingmode vector
attr source channelBusy
vector 3 DNP3NetworkTopology.Concatenator.MeterInterface$o[1].channel busy:vector ETV
attr interpolationmode sample-hold
attr recordingmode vector
attr source channelBusy
vector 4 DNP3NetworkTopology.meter[2].interface$o.channel busy:vector ETV
attr interpolationmode sample-hold
attr recordingmode vector
attr source channelBusy
vector 5 DNP3NetworkTopology.Concatenator.MeterInterface$o[2].channel busy:vector ETV
attr interpolationmode sample-hold
attr recordingmode vector
attr source channelBusy
vector 6 DNP3NetworkTopology.meter[3].interface$o.channel busy:vector ETV
attr interpolationmode sample-hold
attr recordingmode vector
attr source channelBusy
vector 7 DNP3NetworkTopology.Concatenator.MeterInterface$o[3].channel busy:vector ETV
attr interpolationmode sample-hold
attr recordingmode vector
attr source channelBusy
vector 8 DNP3NetworkTopology.meter[4].interface$o.channel busy:vector ETV
attr interpolationmode sample-hold
attr recordingmode vector
attr source channelBusy
vector 9 DNP3NetworkTopology.Concatenator.MeterInterface$o[4].channel busy:vector ETV
attr interpolationmode sample-hold
attr recordingmode vector
attr source channelBusy
vector 10 DNP3NetworkTopology.meter[5].interface$o.channel busy:vector ETV
attr interpolationmode sample-hold
attr recordingmode vector
attr source channelBusy
vector 11 DNP3NetworkTopology.Concatenator.MeterInterface$o[5].channel busy:vector ETV
attr interpolationmode sample-hold
attr recordingmode vector
attr source channelBusy
vector 12 DNP3NetworkTopology.meter[6].interface$o.channel busy:vector ETV
attr interpolationmode sample-hold
attr recordingmode vector
attr source channelBusy
vector 13 DNP3NetworkTopology.Concatenator.MeterInterface$o[6].channel busy:vector ETV
attr interpolationmode sample-hold
attr recordingmode vector
attr source channelBusy
vector 14 DNP3NetworkTopology.meter[7].interface$o.channel busy:vector ETV
attr interpolationmode sample-hold
attr recordingmode vector
attr source channelBusy
vector 15 DNP3NetworkTopology.Concatenator.MeterInterface$o[7].channel busy:vector ETV
attr interpolationmode sample-hold
attr recordingmode vector
attr source channelBusy
vector 16 DNP3NetworkTopology.meter[8].interface$o.channel busy:vector ETV
attr interpolationmode sample-hold
attr recordingmode vector
attr source channelBusy
vector 17 DNP3NetworkTopology.Concatenator.MeterInterface$o[8].channel busy:vector ETV
attr interpolationmode sample-hold
attr recordingmode vector
attr source channelBusy
vector 18 DNP3NetworkTopology.meter[9].interface$o.channel busy:vector ETV
attr interpolationmode sample-hold
attr recordingmode vector
attr source channelBusy
vector 19 DNP3NetworkTopology.Concatenator.MeterInterface$o[9].channel busy:vector ETV
attr interpolationmode sample-hold
attr recordingmode vector
attr source channelBusy
vector 20 DNP3NetworkTopology.meter[10].interface$o.channel busy:vector ETV
attr interpolationmode sample-hold
attr recordingmode vector
attr source channelBusy
vector 21 DNP3NetworkTopology.Concatenator.MeterInterface$o[10].channel busy:vector ETV
attr interpolationmode sample-hold
attr recordingmode vector
attr source channelBusy
vector 22 DNP3NetworkTopology.meter[11].interface$o.channel busy:vector ETV
attr interpolationmode sample-hold
attr recordingmode vector
attr source channelBusy
vector 23 DNP3NetworkTopology.Concatenator.MeterInterface$o[11].channel busy:vector ETV
attr interpolationmode sample-hold
attr recordingmode vector
attr source channelBusy
vector 24 DNP3NetworkTopology.meter[12].interface$o.channel busy:vector ETV
attr interpolationmode sample-hold
attr recordingmode vector
attr source channelBusy
vector 25 DNP3NetworkTopology.Concatenator.MeterInterface$o[12].channel busy:vector ETV
attr interpolationmode sample-hold
attr recordingmode vector
attr source channelBusy
vector 26 DNP3NetworkTopology.meter[13].interface$o.channel busy:vector ETV
attr interpolationmode sample-hold
attr recordingmode vector
attr source channelBusy
vector 27 DNP3NetworkTopology.Concatenator.MeterInterface$o[13].channel busy:vector ETV
attr interpolationmode sample-hold
attr recordingmode vector
attr source channelBusy
vector 28 DNP3NetworkTopology.meter[14].interface$o.channel busy:vector ETV
attr interpolationmode sample-hold
attr recordingmode vector
attr source channelBusy
vector 29 DNP3NetworkTopology.Concatenator.MeterInterface$o[14].channel busy:vector ETV
attr interpolationmode sample-hold
attr recordingmode vector
attr source channelBusy
vector 30 DNP3NetworkTopology.meter[15].interface$o.channel busy:vector ETV
attr interpolationmode sample-hold
attr recordingmode vector
attr source channelBusy
vector 31 DNP3NetworkTopology.Concatenator.MeterInterface$o[15].channel busy:vector ETV
attr interpolationmode sample-hold
attr recordingmode vector
attr source channelBusy
vector 32 DNP3NetworkTopology.meter[16].interface$o.channel busy:vector ETV
attr interpolationmode sample-hold
attr recordingmode vector
attr source channelBusy
vector 33 DNP3NetworkTopology.Concatenator.MeterInterface$o[16].channel busy:vector ETV
attr interpolationmode sample-hold
attr recordingmode vector
attr source channelBusy
vector 34 DNP3NetworkTopology.meter[17].interface$o.channel busy:vector ETV
attr interpolationmode sample-hold
attr recordingmode vector
attr source channelBusy
vector 35 DNP3NetworkTopology.Concatenator.MeterInterface$o[17].channel busy:vector ETV
attr interpolationmode sample-hold
attr recordingmode vector
attr source channelBusy
vector 36 DNP3NetworkTopology.meter[18].interface$o.channel busy:vector ETV
attr interpolationmode sample-hold
attr recordingmode vector
attr source channelBusy
vector 37 DNP3NetworkTopology.Concatenator.MeterInterface$o[18].channel busy:vector ETV
attr interpolationmode sample-hold
attr recordingmode vector
attr source channelBusy
vector 38 DNP3NetworkTopology.meter[19].interface$o.channel busy:vector ETV
attr interpolationmode sample-hold
attr recordingmode vector
attr source channelBusy
vector 39 DNP3NetworkTopology.Concatenator.MeterInterface$o[19].channel busy:vector ETV
attr interpolationmode sample-hold
attr recordingmode vector
attr source channelBusy
vector 40 DNP3NetworkTopology.meter[20].interface$o.channel busy:vector ETV
attr interpolationmode sample-hold
attr recordingmode vector
attr source channelBusy
vector 41 DNP3NetworkTopology.Concatenator.MeterInterface$o[20].channel busy:vector ETV
attr interpolationmode sample-hold
attr recordingmode vector
attr source channelBusy
vector 42 DNP3NetworkTopology.meter[21].interface$o.channel busy:vector ETV
attr interpolationmode sample-hold
attr recordingmode vector
attr source channelBusy
vector 43 DNP3NetworkTopology.Concatenator.MeterInterface$o[21].channel busy:vector ETV
attr interpolationmode sample-hold
attr recordingmode vector
attr source channelBusy
vector 44 DNP3NetworkTopology.meter[22].interface$o.channel busy:vector ETV
attr interpolationmode sample-hold
attr recordingmode vector
attr source channelBusy
vector 45 DNP3NetworkTopology.Concatenator.MeterInterface$o[22].channel busy:vector ETV
attr interpolationmode sample-hold
attr recordingmode vector
attr source channelBusy
vector 46 DNP3NetworkTopology.meter[23].interface$o.channel busy:vector ETV
attr interpolationmode sample-hold
attr recordingmode vector
attr source channelBusy
vector 47 DNP3NetworkTopology.Concatenator.MeterInterface$o[23].channel busy:vector ETV
attr interpolationmode sample-hold
attr recordingmode vector
attr source channelBusy
vector 48 DNP3NetworkTopology.meter[24].interface$o.channel busy:vector ETV
attr interpolationmode sample-hold
attr recordingmode vector
attr source channelBusy
vector 49 DNP3NetworkTopology.Concatenator.MeterInterface$o[24].channel busy:vector ETV
attr interpolationmode sample-hold
attr recordingmode vector
attr source channelBusy
vector 50 DNP3NetworkTopology.Concatenator.DAInterface$o.channel busy:vector ETV
attr interpolationmode sample-hold
attr recordingmode vector
attr source channelBusy
vector 51 DNP3NetworkTopology.distAuto.interface$o.channel busy:vector ETV
attr interpolationmode sample-hold
attr recordingmode vector
attr source channelBusy
vector 52 DNP3NetworkTopology.Concatenator queueLength:vector ETV
attr recordingmode vector
attr source queueLength
attr title "Queue Length"
vector 53 DNP3NetworkTopology.distAuto packetDelay:vector ETV
attr recordingmode vector
attr source packetDelay
attr title "Packet Delay"
0	0	0	0
0	1	0	0
0	1	1	1
0	58	1.066707692308	0
0	58	1.149596153846	1
0	270	1.156734615384	0
0	270	2	1
0	333	2.066707692308	0
0	333	2.149596153846	1
0	545	2.156734615384	0
0	545	3	1
0	608	3.066707692308	0
0	608	3.149596153846	1
0	820	3.156734615384	0
0	820	4	1
0	883	4.066707692308	0
0	883	4.149596153846	1
0	1095	4.156734615384	0
0	1095	5	1
0	1158	5.066707692308	0
0	1158	5.149596153846	1
0	1370	5.156734615384	0
0	1370	6	1
0	1433	6.066707692308	0
0	1433	6.149596153846	1
0	1645	6.156734615384	0
0	1645	7	1
0	1708	7.066707692308	0
0	1708	7.149596153846	1
0	1920	7.156734615384	0
0	1920	8	1
0	1983	8.066707692308	0
0	1983	8.149596153846	1
0	2195	8.156734615384	0
0	2195	9	1
0	2258	9.066707692308	0
0	2258	9.149596153846	1
0	2470	9.156734615384	0
0	2470	10	1
0	2533	10.066707692308	0
0	2533	10.149596153846	1
0	2745	10.156734615384	0
0	2745	11	1
0	2808	11.066707692308	0
0	2808	11.149596153846	1
0	3020	11.156734615384	0
0	3020	12	1
0	3083	12.066707692308	0
0	3083	12.149596153846	1
0	3295	12.156734615384	0
0	3295	13	1
0	3358	13.066707692308	0
0	3358	13.149596153846	1
0	3570	13.156734615384	0
0	3570	14	1
0	3633	14.066707692308	0
0	3633	14.149596153846	1
0	3845	14.156734615384	0
0	3845	15	1
0	3908	15.066707692308	0
0	3908	15.149596153846	1
0	4120	15.156734615384	0
0	4120	16	1
0	4183	16.066707692308	0
0	4183	16.149596153846	1
0	4395	16.156734615384	0
0	4395	17	1
0	4458	17.066707692308	0
0	4458	17.149596153846	1
0	4670	17.156734615384	0
0	4670	18	1
0	4733	18.066707692308	0
0	4733	18.149596153846	1
0	4945	18.156734615384	0
0	4945	19	1
0	5008	19.066707692308	0
0	5008	19.149596153846	1
0	5220	19.156734615384	0
0	5220	20	1
0	5283	20.066707692308	0
0	5283	20.149596153846	1
0	5495	20.156734615384	0
0	5495	21	1
0	5558	21.066707692308	0
0	5558	21.149596153846	1
0	5770	21.156734615384	0
0	5770	22	1
0	5833	22.066707692308	0
0	5833	22.149596153846	1
0	6045	22.156734615384	0
0	6045	23	1
0	6108	23.066707692308	0
0	6108	23.149596153846	1
0	6320	23.156734615384	0
0	6320	24	1
0	6383	24.066707692308	0
0	6383	24.149596153846	1
0	6595	24.156734615384	0
0	6595	25	1
0	6658	25.066707692308	0
0	6658	25.149596153846	1
0	6870	25.156734615384	0
0	6870	26	1
0	6933	26.066707692308	0
0	6933	26.149596153846	1
0	7145	26.156734615384	0
0	7145	27	1
0	7208	27.066707692308	0
0	7208	27.149596153846	1
0	7420	27.156734615384	0
0	7420	28	1
0	7483	28.066707692308	0
0	7483	28.149596153846	1
0	7695	28.156734615384	0
0	7695	29	1
0	7758	29.066707692308	0
0	7758	29.149596153846	1
0	7970	29.156734615384	0
0	7970	30	1
0	8033	30.066707692308	0
0	8033	30.149596153846	1
0	8245	30.156734615384	0
0	8245	31	1
0	8308	31.066707692308	0
0	8308	31.149596153846	1
0	8520	31.156734615384	0
0	8520	32	1
0	8583	32.066707692308	0
0	8583	32.149596153846	1
0	8795	32.156734615384	0
0	8795	33	1
0	8858	33.066707692308	0
0	8858	33.149596153846	1
0	9070	33.156734615384	0
0	9070	34	1
0	9133	34.066707692308	0
0	9133	34.149596153846	1
0	9345	34.156734615384	0
0	9345	35	1
0	9408	35.066707692308	0
0	9408	35.149596153846	1
0	9620	35.156734615384	0
0	9620	36	1
0	9683	36.066707692308	0
0	9683	36.149596153846	1
0	9895	36.156734615384	0
0	9895	37	1
0	9958	37.066707692308	0
0	9958	37.149596153846	1
0	10170	37.156734615384	0
0	10170	38	1
0	10233	38.066707692308	0
0	10233	38.149596153846	1
0	10445	38.156734615384	0
0	10445	39	1
0	10508	39.066707692308	0
0	10508	39.149596153846	1
0	10720	39.156734615384	0
0	10720	40	1
0	10783	40.066707692308	0
0	10783	40.149596153846	1
0	10995	40.156734615384	0
0	10995	41	1
0	11058	41.066707692308	0
0	11058	41.149596153846	1
0	11270	41.156734615384	0
0	11270	42	1
0	11333	42.066707692308	0
0	11333	42.149596153846	1
0	11545	42.156734615384	0
0	11545	43	1
0	11608	43.066707692308	0
0	11608	43.149596153846	1
0	11820	43.156734615384	0
0	11820	44	1
0	11883	44.066707692308	0
0	11883	44.149596153846	1
0	12095	44.156734615384	0
0	12095	45	1
0	12158	45.066707692308	0
0	12158	45.149596153846	1
0	12370	45.156734615384	0
0	12370	46	1
0	12433	46.066707692308	0
0	12433	46.149596153846	1
0	12645	46.156734615384	0
0	12645	47	1
0	12708	47.066707692308	0
0	12708	47.149596153846	1
0	12920	47.156734615384	0
0	12920	48	1
0	12983	48.066707692308	0
0	12983	48.149596153846	1
0	13195	48.156734615384	0
0	13195	49	1
0	13258	49.066707692308	0
0	13258	49.149596153846	1
0	13470	49.156734615384	0
0	13470	50	1
0	13533	50.066707692308	0
0	13533	50.149596153846	1
0	13745	50.156734615384	0
0	13745	51	1
0	13808	51.066707692308	0
0	13808	51.149596153846	1
0	14020	51.156734615384	0
0	14020	52	1
0	14083	52.066707692308	0
0	14083	52.149596153846	1
0	14295	52.156734615384	0
0	14295	53	1
0	14358	53.066707692308	0
0	14358	53.149596153846	1
0	14570	53.156734615384	0
0	14570	54	1
0	14633	54.066707692308	0
0	14633	54.149596153846	1
0	14845	54.156734615384	0
0	14845	55	1
0	14908	55.066707692308	0
0	14908	55.149596153846	1
0	15120	55.156734615384	0
0	15120	56	1
0	15183	56.066707692308	0
0	15183	56.149596153846	1
0	15395	56.156734615384	0
0	15395	57	1
0	15458	57.066707692308	0
0	15458	57.149596153846	1
0	15670	57.156734615384	0
0	15670	58	1
0	15733	58.066707692308	0
0	15733	58.149596153846	1
0	15945	58.156734615384	0
0	15945	59	1
0	16008	59.066707692308	0
0	16008	59.149596153846	1
0	16220	59.156734615384	0
0	16220	60	1
0	16283	60.066707692308	0
0	16283	60.149596153846	1
0	16495	60.156734615384	0
0	16495	61	1
0	16558	61.066707692308	0
0	16558	61.149596153846	1
0	16770	61.156734615384	0
0	16770	62	1
0	16833	62.066707692308	0
0	16833	62.149596153846	1
0	17045	62.156734615384	0
0	17045	63	1
0	17108	63.066707692308	0
0	17108	63.149596153846	1
0	17320	63.156734615384	0
0	17320	64	1
0	17383	64.066707692308	0
0	17383	64.149596153846	1
0	17595	64.156734615384	0
0	17595	65	1
0	17658	65.066707692308	0
0	17658	65.149596153846	1
0	17870	65.156734615384	0
0	17870	66	1
0	17933	66.066707692308	0
0	17933	66.149596153846	1
0	18145	66.156734615384	0
0	18145	67	1
0	18208	67.066707692308	0
0	18208	67.149596153846	1
0	18420	67.156734615384	0
0	18420	68	1
0	18483	68.066707692308	0
0	18483	68.149596153846	1
0	18695	68.156734615384	0
0	18695	69	1
0	18758	69.066707692308	0
0	18758	69.149596153846	1
0	18970	69.156734615384	0
0	18970	70	1
0	19033	70.066707692308	0
0	19033	70.149596153846	1
0	19245	70.156734615384	0
0	19245	71	1
0	19308	71.066707692308	0
0	19308	71.149596153846	1
0	19520	71.156734615384	0
0	19520	72	1
0	19583	72.066707692308	0
0	19583	72.149596153846	1
0	19795	72.156734615384	0
0	19795	73	1
0	19858	73.066707692308	0
0	19858	73.149596153846	1
0	20070	73.156734615384	0
0	20070	74	1
0	20133	74.066707692308	0
0	20133	74.149596153846	1
0	20345	74.156734615384	0
0	20345	75	1
0	20408	75.066707692308	0
0	20408	75.149596153846	1
0	20620	75.156734615384	0
0	20620	76	1
0	20683	76.066707692308	0
0	20683	76.149596153846	1
0	20895	76.156734615384	0
0	20895	77	1
0	20958	77.066707692308	0
0	20958	77.149596153846	1
0	21170	77.156734615384	0
0	21170	78	1
0	21233	78.066707692308	0
0	21233	78.149596153846	1
0	21445	78.156734615384	0
0	21445	79	1
0	21508	79.066707692308	0
0	21508	79.149596153846	1
0	21720	79.156734615384	0
0	21720	80	1
0	21783	80.066707692308	0
0	21783	80.149596153846	1
0	21995	80.156734615384	0
0	21995	81	1
0	22058	81.066707692308	0
0	22058	81.149596153846	1
0	22270	81.156734615384	0
0	22270	82	1
0	22333	82.066707692308	0
0	22333	82.149596153846	1
0	22545	82.156734615384	0
0	22545	83	1
0	22608	83.066707692308	0
0	22608	83.149596153846	1
0	22820	83.156734615384	0
0	22820	84	1
0	22883	84.066707692308	0
0	22883	84.149596153846	1
0	23095	84.156734615384	0
0	23095	85	1
0	23158	85.066707692308	0
0	23158	85.149596153846	1
0	23370	85.156734615384	0
0	23370	86	1
0	23433	86.066707692308	0
0	23433	86.149596153846	1
0	23645	86.156734615384	0
0	23645	87	1
0	23708	87.066707692308	0
0	23708	87.149596153846	1
0	23920	87.156734615384	0
0	23920	88	1
0	23983	88.066707692308	0
0	23983	88.149596153846	1
0	24195	88.156734615384	0
0	24195	89	1
0	24258	89.066707692308	0
0	24258	89.149596153846	1
0	24470	89.156734615384	0
0	24470	90	1
0	24533	90.066707692308	0
0	24533	90.149596153846	1
0	24745	90.156734615384	0
0	24745	91	1
0	24808	91.066707692308	0
0	24808	91.149596153846	1
0	25020	91.156734615384	0
0	25020	92	1
0	25083	92.066707692308	0
0	25083	92.149596153846	1
0	25295	92.156734615384	0
0	25295	93	1
0	25358	93.066707692308	0
0	25358	93.149596153846	1
0	25570	93.156734615384	0
0	25570	94	1
0	25633	94.066707692308	0
0	25633	94.149596153846	1
0	25845	94.156734615384	0
0	25845	95	1
0	25908	95.066707692308	0
0	25908	95.149596153846	1
0	26120	95.156734615384	0
0	26120	96	1
0	26183	96.066707692308	0
0	26183	96.149596153846	1
0	26395	96.156734615384	0
0	26395	97	1
0	26458	97.066707692308	0
0	26458	97.149596153846	1
0	26670	97.156734615384	0
0	26670	98	1
0	26733	98.066707692308	0
0	26733	98.149596153846	1
0	26945	98.156734615384	0
0	26945	99	1
0	27008	99.066707692308	0
0	27008	99.149596153846	1
0	27220	99.156734615384	0
0	27220	100	1
0	27283	100.066707692308	0
0	27283	100.149596153846	1
0	27495	100.156734615384	0
0	27495	101	1
0	27558	101.066707692308	0
0	27558	101.149596153846	1
0	27770	101.156734615384	0
0	27770	102	1
0	27833	102.066707692308	0
0	27833	102.149596153846	1
0	28045	102.156734615384	0
0	28045	103	1
0	28108	103.066707692308	0
0	28108	103.149596153846	1
0	28320	103.156734615384	0
0	28320	104	1
0	28383	104.066707692308	0
0	28383	104.149596153846	1
0	28595	104.156734615384	0
0	28595	105	1
0	28658	105.066707692308	0
0	28658	105.149596153846	1
0	28870	105.156734615384	0
0	28870	106	1
0	28933	106.066707692308	0
0	28933	106.149596153846	1
0	29145	106.156734615384	0
0	29145	107	1
0	29208	107.066707692308	0
0	29208	107.149596153846	1
0	29420	107.156734615384	0
0	29420	108	1
0	29483	108.066707692308	0
0	29483	108.149596153846	1
0	29695	108.156734615384	0
0	29695	109	1
0	29758	109.066707692308	0
0	29758	109.149596153846	1
0	29970	109.156734615384	0
0	29970	110	1
0	30033	110.066707692308	0
0	30033	110.149596153846	1
0	30245	110.156734615384	0
0	30245	111	1
0	30308	111.066707692308	0
0	30308	111.149596153846	1
0	30520	111.156734615384	0
0	30520	112	1
0	30583	112.066707692308	0
0	30583	112.149596153846	1
0	30795	112.156734615384	0
0	30795	113	1
0	30858	113.066707692308	0
0	30858	113.149596153846	1
0	31070	113.156734615384	0
0	31070	114	1
0	31133	114.066707692308	0
0	31133	114.149596153846	1
0	31345	114.156734615384	0
0	31345	115	1
0	31408	115.066707692308	0
0	31408	115.149596153846	1
0	31620	115.156734615384	0
0	31620	116	1
0	31683	116.066707692308	0
0	31683	116.149596153846	1
0	31895	116.156734615384	0
0	31895	117	1
0	31958	117.066707692308	0
0	31958	117.149596153846	1
0	32170	117.156734615384	0
0	32170	118	1
0	32233	118.066707692308	0
0	32233	118.149596153846	1
0	32445	118.156734615384	0
0	32445	119	1
0	32508	119.066707692308	0
0	32508	119.149596153846	1
0	32720	119.156734615384	0
0	32720	120	1
0	32783	120.066707692308	0
0	32783	120.149596153846	1
0	32995	120.156734615384	0
0	32995	121	1
0	33058	121.066707692308	0
0	33058	121.149596153846	1
0	33270	121.156734615384	0
0	33270	122	1
0	33333	122.066707692308	0
0	33333	122.149596153846	1
0	33545	122.156734615384	0
0	33545	123	1
0	33608	123.066707692308	0
0	33608	123.149596153846	1
0	33820	123.156734615384	0
0	33820	124	1
0	33883	124.066707692308	0
0	33883	124.149596153846	1
0	34095	124.156734615384	0
0	34095	125	1
0	34158	125.066707692308	0
0	34158	125.149596153846	1
0	34370	125.156734615384	0
0	34370	126	1
0	34433	126.066707692308	0
0	34433	126.149596153846	1
0	34645	126.156734615384	0
0	34645	127	1
0	34708	127.066707692308	0
0	34708	127.149596153846	1
0	34920	127.156734615384	0
0	34920	128	1
0	34983	128.066707692308	0
0	34983	128.149596153846	1
0	35195	128.156734615384	0
0	35195	129	1
0	35258	129.066707692308	0
0	35258	129.149596153846	1
0	35470	129.156734615384	0
0	35470	130	1
0	35533	130.066707692308	0
0	35533	130.149596153846	1
0	35745	130.156734615384	0
0	35745	131	1
0	35808	131.066707692308	0
0	35808	131.149596153846	1
0	36020	131.156734615384	0
0	36020	132	1
0	36083	132.066707692308	0
0	36083	132.149596153846	1
0	36295	132.156734615384	0
0	36295	133	1
0	36358	133.066707692308	0
0	36358	133.149596153846	1
0	36570	133.156734615384	0
0	36570	134	1
0	36633	134.066707692308	0
0	36633	134.149596153846	1
0	36845	134.156734615384	0
0	36845	135	1
0	36908	135.066707692308	0
0	36908	135.149596153846	1
0	37120	135.156734615384	0
0	37120	136	1
0	37183	136.066707692308	0
0	37183	136.149596153846	1
0	37395	136.156734615384	0
0	37395	137	1
0	37458	137.066707692308	0
0	37458	137.149596153846	1
0	37670	137.156734615384	0
0	37670	138	1
0	37733	138.066707692308	0
0	37733	138.149596153846	1
0	37945	138.156734615384	0
0	37945	139	1
0	38008	139.066707692308	0
0	38008	139.149596153846	1
0	38220	139.156734615384	0
0	38220	140	1
0	38283	140.066707692308	0
0	38283	140.149596153846	1
0	38495	140.156734615384	0
0	38495	141	1
0	38558	141.066707692308	0
0	38558	141.149596153846	1
0	38770	141.156734615384	0
0	38770	142	1
0	38833	142.066707692308	0
0	38833	142.149596153846	1
0	39045	142.156734615384	0
0	39045	143	1
0	39108	143.066707692308	0
0	39108	143.149596153846	1
0	39320	143.156734615384	0
0	39320	144	1
0	39383	144.066707692308	0
0	39383	144.149596153846	1
0	39595	144.156734615384	0
0	39595	145	1
0	39658	145.066707692308	0
0	39658	145.149596153846	1
0	39870	145.156734615384	0
0	39870	146	1
0	39933	146.066707692308	0
0	39933	146.149596153846	1
0	40145	146.156734615384	0
0	40145	147	1
0	40208	147.066707692308	0
0	40208	147.149596153846	1
0	40420	147.156734615384	0
0	40420	148	1
0	40483	148.066707692308	0
0	40483	148.149596153846	1
0	40695	148.156734615384	0
0	40695	149	1
0	40758	149.066707692308	0
0	40758	149.149596153846	1
0	40970	149.156734615384	0
0	40970	150	1
0	41033	150.066707692308	0
0	41033	150.149596153846	1
0	41245	150.156734615384	0
0	41245	151	1
0	41308	151.066707692308	0
0	41308	151.149596153846	1
0	41520	151.156734615384	0
0	41520	152	1
0	41583	152.066707692308	0
0	41583	152.149596153846	1
0	41795	152.156734615384	0
0	41795	153	1
0	41858	153.066707692308	0
0	41858	153.149596153846	1
0	42070	153.156734615384	0
0	42070	154	1
0	42133	154.066707692308	0
0	42133	154.149596153846	1
0	42345	154.156734615384	0
0	42345	155	1
0	42408	155.066707692308	0
0	42408	155.149596153846	1
0	42620	155.156734615384	0
0	42620	156	1
0	42683	156.066707692308	0
0	42683	156.149596153846	1
0	42895	156.156734615384	0
0	42895	157	1
0	42958	157.066707692308	0
0	42958	157.149596153846	1
0	43170	157.156734615384	0
0	43170	158	1
0	43233	158.066707692308	0
0	43233	158.149596153846	1
0	43445	158.156734615384	0
0	43445	159	1
0	43508	159.066707692308	0
0	43508	159.149596153846	1
0	43720	159.156734615384	0
0	43720	160	1
0	43783	160.066707692308	0
0	43783	160.149596153846	1
0	43995	160.156734615384	0
0	43995	161	1
0	44058	161.066707692308	0
0	44058	161.149596153846	1
0	44270	161.156734615384	0
0	44270	162	1
0	44333	162.066707692308	0
0	44333	162.149596153846	1
0	44545	162.156734615384	0
0	44545	163	1
0	44608	163.066707692308	0
0	44608	163.149596153846	1
0	44820	163.156734615384	0
0	44820	164	1
0	44883	164.066707692308	0
0	44883	164.149596153846	1
0	45095	164.156734615384	0
0	45095	165	1
0	45158	165.066707692308	0
0	45158	165.149596153846	1
0	45370	165.156734615384	0
0	45370	166	1
0	45433	166.066707692308	0
0	45433	166.149596153846	1
0	45645	166.156734615384	0
0	45645	167	1
0	45708	167.066707692308	0
0	45708	167.149596153846	1
0	45920	167.156734615384	0
0	45920	168	1
0	45983	168.066707692308	0
0	45983	168.149596153846	1
0	46195	168.156734615384	0
0	46195	169	1
0	46258	169.066707692308	0
0	46258	169.149596153846	1
0	46470	169.156734615384	0
0	46470	170	1
0	46533	170.066707692308	0
0	46533	170.149596153846	1
0	46745	170.156734615384	0
0	46745	171	1
0	46808	171.066707692308	0
0	46808	171.149596153846	1
0	47020	171.156734615384	0
0	47020	172	1
0	47083	172.066707692308	0
0	47083	172.149596153846	1
0	47295	172.156734615384	0
0	47295	173	1
0	47358	173.066707692308	0
0	47358	173.149596153846	1
0	47570	173.156734615384	0
0	47570	174	1
0	47633	174.066707692308	0
0	47633	174.149596153846	1
0	47845	174.156734615384	0
0	47845	175	1
0	47908	175.066707692308	0
0	47908	175.149596153846	1
0	48120	175.156734615384	0
0	48120	176	1
0	48183	176.066707692308	0
0	48183	176.149596153846	1
0	48395	176.156734615384	0
0	48395	177	1
0	48458	177.066707692308	0
0	48458	177.149596153846	1
0	48670	177.156734615384	0
0	48670	178	1
0	48733	178.066707692308	0
0	48733	178.149596153846	1
0	48945	178.156734615384	0
0	48945	179	1
0	49008	179.066707692308	0
0	49008	179.149596153846	1
0	49220	179.156734615384	0
0	49220	180	1
0	49283	180.066707692308	0
0	49283	180.149596153846	1
0	49495	180.156734615384	0
0	49495	181	1
0	49558	181.066707692308	0
0	49558	181.149596153846	1
0	49770	181.156734615384	0
0	49770	182	1
0	49833	182.066707692308	0
0	49833	182.149596153846	1
0	50045	182.156734615384	0
0	50045	183	1
0	50108	183.066707692308	0
0	50108	183.149596153846	1
0	50320	183.156734615384	0
0	50320	184	1
0	50383	184.066707692308	0
0	50383	184.149596153846	1
0	50595	184.156734615384	0
0	50595	185	1
0	50658	185.066707692308	0
0	50658	185.149596153846	1
0	50870	185.156734615384	0
0	50870	186	1
0	50933	186.066707692308	0
0	50933	186.149596153846	1
0	51145	186.156734615384	0
0	51145	187	1
0	51208	187.066707692308	0
0	51208	187.149596153846	1
0	51420	187.156734615384	0
0	51420	188	1
0	51483	188.066707692308	0
0	51483	188.149596153846	1
0	51695	188.156734615384	0
0	51695	189	1
0	51758	189.066707692308	0
0	51758	189.149596153846	1
0	51970	189.156734615384	0
0	51970	190	1
0	52033	190.066707692308	0
0	52033	190.149596153846	1
0	52245	190.156734615384	0
0	52245	191	1
0	52308	191.066707692308	0
0	52308	191.149596153846	1
0	52520	191.156734615384	0
0	52520	192	1
0	52583	192.066707692308	0
0	52583	192.149596153846	1
0	52795	192.156734615384	0
0	52795	193	1
0	52858	193.066707692308	0
0	52858	193.149596153846	1
0	53070	193.156734615384	0
0	53070	194	1
0	53133	194.066707692308	0
0	53133	194.149596153846	1
0	53345	194.156734615384	0
0	53345	195	1
0	53408	195.066707692308	0
0	53408	195.149596153846	1
0	53620	195.156734615384	0
0	53620	196	1
0	53683	196.066707692308	0
0	53683	196.149596153846	1
0	53895	196.156734615384	0
0	53895	197	1
0	53958	197.066707692308	0
0	53958	197.149596153846	1
0	54170	197.156734615384	0
0	54170	198	1
0	54233	198.066707692308	0
0	54233	198.149596153846	1
0	54445	198.156734615384	0
0	54445	199	1
0	54508	199.066707692308	0
0	54508	199.149596153846	1
0	54720	199.156734615384	0
0	54720	200	1
0	54783	200.066707692308	0
0	54783	200.149596153846	1
0	54995	200.156734615384	0
0	54995	201	1
0	55058	201.066707692308	0
0	55058	201.149596153846	1
0	55270	201.156734615384	0
0	55270	202	1
0	55333	202.066707692308	0
0	55333	202.149596153846	1
0	55545	202.156734615384	0
0	55545	203	1
0	55608	203.066707692308	0
0	55608	203.149596153846	1
0	55820	203.156734615384	0
0	55820	204	1
0	55883	204.066707692308	0
0	55883	204.149596153846	1
0	56095	204.156734615384	0
0	56095	205	1
0	56158	205.066707692308	0
0	56158	205.149596153846	1
0	56370	205.156734615384	0
0	56370	206	1
0	56433	206.066707692308	0
0	56433	206.149596153846	1
0	56645	206.156734615384	0
0	56645	207	1
0	56708	207.066707692308	0
0	56708	207.149596153846	1
0	56920	207.156734615384	0
0	56920	208	1
0	56983	208.066707692308	0
0	56983	208.149596153846	1
0	57195	208.156734615384	0
0	57195	209	1
0	57258	209.066707692308	0
0	57258	209.149596153846	1
0	57470	209.156734615384	0
0	57470	210	1
0	57533	210.066707692308	0
0	57533	210.149596153846	1
0	57745	210.156734615384	0
0	57745	211	1
0	57808	211.066707692308	0
0	57808	211.149596153846	1
0	58020	211.156734615384	0
0	58020	212	1
0	58083	212.066707692308	0
0	58083	212.149596153846	1
0	58295	212.156734615384	0
0	58295	213	1
0	58358	213.066707692308	0
0	58358	213.149596153846	1
0	58570	213.156734615384	0
0	58570	214	1
0	58633	214.066707692308	0
0	58633	214.149596153846	1
0	58845	214.156734615384	0
0	58845	215	1
0	58908	215.066707692308	0
0	58908	215.149596153846	1
0	59120	215.156734615384	0
0	59120	216	1
0	59183	216.066707692308	0
0	59183	216.149596153846	1
0	59395	216.156734615384	0
0	59395	217	1
0	59458	217.066707692308	0
0	59458	217.149596153846	1