version 3
run LightTraffic-0-20260310-06:29:58-35672
attr configname LightTraffic
attr datetime 20260310-06:29:58
attr datetimef 20260310-062958
attr experiment LightTraffic
attr inifile omnetpp.ini
attr iterationvars ""
attr iterationvarsd ""
attr iterationvarsf ""
attr measurement ""
attr network DNP3NetworkTopology
attr processid 35672
attr repetition 0
attr replication #0
attr resultdir results
attr runnumber 0
attr seedset 0
config image-path ../../inet4.5/images
config description "Light traffic scenario"
config *.numMeters 50
config *.distAuto.numMeters 50
config **.eventInterval 10s
config **.eventBytes 442
config network DNP3NetworkTopology
config sim-time-limit 350s
config output-scalar-file LightTraffic.sca
config output-vector-file LightTraffic.vec
config **.scalar-recording true
config **.vector-recording true
config **.result-recording-modes all
config *.distAuto.processingDelay 10ms
config **.totalPackets 500
config **.ackTimeout 2s
config **.stopGenerationTime 300s
config *.meter[*].meterId index

vector 0 DNP3NetworkTopology.meter[0].interface$o.channel busy:vector ETV
attr interpolationmode sample-hold
attr recordingmode vector
attr source channelBusy
vector 1 DNP3NetworkTopology.Concatenator.MeterInterface$o[0].channel busy:vector ETV
attr interpolationmode sample-hold
attr recordingmode vector
attr source channelBusy
vector 2 DNP3NetworkTopology.meter[1].interface$o.channel busy:vector ETV
attr interpolationmode sample-hold
attr recordingmode vector
attr source channelBusy
vector 3 DNP3NetworkTopology.Concatenator.MeterInterface$o[1].channel busy:vector ETV
attr interpolationmode sample-hold
attr recordingmode vector
attr source channelBusy
vector 4 DNP3NetworkTopology.meter[2].interface$o.channel busy:vector ETV
attr interpolationmode sample-hold
attr recordingmode vector
attr source channelBusy
vector 5 DNP3NetworkTopology.Concatenator.MeterInterface$o[2].channel busy:vector ETV
attr interpolationmode sample-hold
attr recordingmode vector
attr source channelBusy
vector 6 DNP3NetworkTopology.meter[3].interface$o.channel busy:vector ETV
attr interpolationmode sample-hold
attr recordingmode vector
attr source channelBusy
vector 7 DNP3NetworkTopology.Concatenator.MeterInterface$o[3].channel busy:vector ETV
attr interpolationmode sample-hold
attr recordingmode vector
attr source channelBusy
vector 8 DNP3NetworkTopology.meter[4].interface$o.channel busy:vector ETV
attr interpolationmode sample-hold
attr recordingmode vector
attr source channelBusy
vector 9 DNP3NetworkTopology.Concatenator.MeterInterface$o[4].channel busy:vector ETV
attr interpolationmode sample-hold
attr recordingmode vector
attr source channelBusy
vector 10 DNP3NetworkTopology.meter[5].interface$o.channel busy:vector ETV
attr interpolationmode sample-hold
attr recordingmode vector
attr source channelBusy
vector 11 DNP3NetworkTopology.Concatenator.MeterInterface$o[5].channel busy:vector ETV
attr interpolationmode sample-hold
attr recordingmode vector
attr source channelBusy
vector 12 DNP3NetworkTopology.meter[6].interface$o.channel busy:vector ETV
attr interpolationmode sample-hold
attr recordingmode vector
attr source channelBusy
vector 13 DNP3NetworkTopology.Concatenator.MeterInterface$o[6].channel busy:vector ETV
attr interpolationmode sample-hold
attr recordingmode vector
attr source channelBusy
vector 14 DNP3NetworkTopology.meter[7].interface$o.channel busy:vector ETV
attr interpolationmode sample-hold
attr recordingmode vector
attr source channelBusy
vector 15 DNP3NetworkTopology.Concatenator.MeterInterface$o[7].channel busy:vector ETV
attr interpolationmode sample-hold
attr recordingmode vector
attr source channelBusy
vector 16 DNP3NetworkTopology.meter[8].interface$o.channel busy:vector ETV
attr interpolationmode sample-hold
attr recordingmode vector
attr source channelBusy
vector 17 DNP3NetworkTopology.Concatenator.MeterInterface$o[8].channel busy:vector ETV
attr interpolationmode sample-hold
attr recordingmode vector
attr source channelBusy
vector 18 DNP3NetworkTopology.meter[9].interface$o.channel busy:vector ETV
attr interpolationmode sample-hold
attr recordingmode vector
attr source channelBusy
vector 19 DNP3NetworkTopology.Concatenator.MeterInterface$o[9].channel busy:vector ETV
attr interpolationmode sample-hold
attr recordingmode vector
attr source channelBusy
vector 20 DNP3NetworkTopology.meter[10].interface$o.channel busy:vector ETV
attr interpolationmode sample-hold
attr recordingmode vector
attr source channelBusy
vector 21 DNP3NetworkTopology.Concatenator.MeterInterface$o[10].channel busy:vector ETV
attr interpolationmode sample-hold
attr recordingmode vector
attr source channelBusy
vector 22 DNP3NetworkTopology.meter[11].interface$o.channel busy:vector ETV
attr interpolationmode sample-hold
attr recordingmode vector
attr source channelBusy
vector 23 DNP3NetworkTopology.Concatenator.MeterInterface$o[11].channel busy:vector ETV
attr interpolationmode sample-hold
attr recordingmode vector
attr source channelBusy
vector 24 DNP3NetworkTopology.meter[12].interface$o.channel busy:vector ETV
attr interpolationmode sample-hold
attr recordingmode vector
attr source channelBusy
vector 25 DNP3NetworkTopology.Concatenator.MeterInterface$o[12].channel busy:vector ETV
attr interpolationmode sample-hold
attr recordingmode vector
attr source channelBusy
vector 26 DNP3NetworkTopology.meter[13].interface$o.channel busy:vector ETV
attr interpolationmode sample-hold
attr recordingmode vector
attr source channelBusy
vector 27 DNP3NetworkTopology.Concatenator.MeterInterface$o[13].channel busy:vector ETV
attr interpolationmode sample-hold
attr recordingmode vector
attr source channelBusy
vector 28 DNP3NetworkTopology.meter[14].interface$o.channel busy:vector ETV
attr interpolationmode sample-hold
attr recordingmode vector
attr source channelBusy
vector 29 DNP3NetworkTopology.Concatenator.MeterInterface$o[14].channel busy:vector ETV
attr interpolationmode sample-hold
attr recordingmode vector
attr source channelBusy
vector 30 DNP3NetworkTopology.meter[15].interface$o.channel busy:vector ETV
attr interpolationmode sample-hold
attr recordingmode vector
attr source channelBusy
vector 31 DNP3NetworkTopology.Concatenator.MeterInterface$o[15].channel busy:vector ETV
attr interpolationmode sample-hold
attr recordingmode vector
attr source channelBusy
vector 32 DNP3NetworkTopology.meter[16].interface$o.channel busy:vector ETV
attr interpolationmode sample-hold
attr recordingmode vector
attr source channelBusy
vector 33 DNP3NetworkTopology.Concatenator.MeterInterface$o[16].channel busy:vector ETV
attr interpolationmode sample-hold
attr recordingmode vector
attr source channelBusy
vector 34 DNP3NetworkTopology.meter[17].interface$o.channel busy:vector ETV
attr interpolationmode sample-hold
attr recordingmode vector
attr source channelBusy
vector 35 DNP3NetworkTopology.Concatenator.MeterInterface$o[17].channel busy:vector ETV
attr interpolationmode sample-hold
attr recordingmode vector
attr source channelBusy
vector 36 DNP3NetworkTopology.meter[18].interface$o.channel busy:vector ETV
attr interpolationmode sample-hold
attr recordingmode vector
attr source channelBusy
vector 37 DNP3NetworkTopology.Concatenator.MeterInterface$o[18].channel busy:vector ETV
attr interpolationmode sample-hold
attr recordingmode vector
attr source channelBusy
vector 38 DNP3NetworkTopology.meter[19].interface$o.channel busy:vector ETV
attr interpolationmode sample-hold
attr recordingmode vector
attr source channelBusy
vector 39 DNP3NetworkTopology.Concatenator.MeterInterface$o[19].channel busy:vector ETV
attr interpolationmode sample-hold
attr recordingmode vector
attr source channelBusy
vector 40 DNP3NetworkTopology.meter[20].interface$o.channel busy:vector ETV
attr interpolationmode sample-hold
attr recordingmode vector
attr source channelBusy
vector 41 DNP3NetworkTopology.Concatenator.MeterInterface$o[20].channel busy:vector ETV
attr interpolationmode sample-hold
attr recordingmode vector
attr source channelBusy
vector 42 DNP3NetworkTopology.meter[21].interface$o.channel busy:vector ETV
attr interpolationmode sample-hold
attr recordingmode vector
attr source channelBusy
vector 43 DNP3NetworkTopology.Concatenator.MeterInterface$o[21].channel busy:vector ETV
attr interpolationmode sample-hold
attr recordingmode vector
attr source channelBusy
vector 44 DNP3NetworkTopology.meter[22].interface$o.channel busy:vector ETV
attr interpolationmode sample-hold
attr recordingmode vector
attr source channelBusy
vector 45 DNP3NetworkTopology.Concatenator.MeterInterface$o[22].channel busy:vector ETV
attr interpolationmode sample-hold
attr recordingmode vector
attr source channelBusy
vector 46 DNP3NetworkTopology.meter[23].interface$o.channel busy:vector ETV
attr interpolationmode sample-hold
attr recordingmode vector
attr source channelBusy
vector 47 DNP3NetworkTopology.Concatenator.MeterInterface$o[23].channel busy:vector ETV
attr interpolationmode sample-hold
attr recordingmode vector
attr source channelBusy
vector 48 DNP3NetworkTopology.meter[24].interface$o.channel busy:vector ETV
attr interpolationmode sample-hold
attr recordingmode vector
attr source channelBusy
vector 49 DNP3NetworkTopology.Concatenator.MeterInterface$o[24].channel busy:vector ETV
attr interpolationmode sample-hold
attr recordingmode vector
attr source channelBusy
vector 50 DNP3NetworkTopology.meter[25].interface$o.channel busy:vector ETV
attr interpolationmode sample-hold
attr recordingmode vector
attr source channelBusy
vector 51 DNP3NetworkTopology.Concatenator.MeterInterface$o[25].channel busy:vector ETV
attr interpolationmode sample-hold
attr recordingmode vector
attr source channelBusy
vector 52 DNP3NetworkTopology.meter[26].interface$o.channel busy:vector ETV
attr interpolationmode sample-hold
attr recordingmode vector
attr source channelBusy
vector 53 DNP3NetworkTopology.Concatenator.MeterInterface$o[26].channel busy:vector ETV
attr interpolationmode sample-hold
attr recordingmode vector
attr source channelBusy
vector 54 DNP3NetworkTopology.meter[27].interface$o.channel busy:vector ETV
attr interpolationmode sample-hold
attr recordingmode vector
attr source channelBusy
vector 55 DNP3NetworkTopology.Concatenator.MeterInterface$o[27].channel busy:vector ETV
attr interpolationmode sample-hold
attr recordingmode vector
attr source channelBusy
vector 56 DNP3NetworkTopology.meter[28].interface$o.channel busy:vector ETV
attr interpolationmode sample-hold
attr recordingmode vector
attr source channelBusy
vector 57 DNP3NetworkTopology.Concatenator.MeterInterface$o[28].channel busy:vector ETV
attr interpolationmode sample-hold
attr recordingmode vector
attr source channelBusy
vector 58 DNP3NetworkTopology.meter[29].interface$o.channel busy:vector ETV
attr interpolationmode sample-hold
attr recordingmode vector
attr source channelBusy
vector 59 DNP3NetworkTopology.Concatenator.MeterInterface$o[29].channel busy:vector ETV
attr interpolationmode sample-hold
attr recordingmode vector
attr source channelBusy
vector 60 DNP3NetworkTopology.meter[30].interface$o.channel busy:vector ETV
attr interpolationmode sample-hold
attr recordingmode vector
attr source channelBusy
vector 61 DNP3NetworkTopology.Concatenator.MeterInterface$o[30].channel busy:vector ETV
attr interpolationmode sample-hold
attr recordingmode vector
attr source channelBusy
vector 62 DNP3NetworkTopology.meter[31].interface$o.channel busy:vector ETV
attr interpolationmode sample-hold
attr recordingmode vector
attr source channelBusy
vector 63 DNP3NetworkTopology.Concatenator.MeterInterface$o[31].channel busy:vector ETV
attr interpolationmode sample-hold
attr recordingmode vector
attr source channelBusy
vector 64 DNP3NetworkTopology.meter[32].interface$o.channel busy:vector ETV
attr interpolationmode sample-hold
attr recordingmode vector
attr source channelBusy
vector 65 DNP3NetworkTopology.Concatenator.MeterInterface$o[32].channel busy:vector ETV
attr interpolationmode sample-hold
attr recordingmode vector
attr source channelBusy
vector 66 DNP3NetworkTopology.meter[33].interface$o.channel busy:vector ETV
attr interpolationmode sample-hold
attr recordingmode vector
attr source channelBusy
vector 67 DNP3NetworkTopology.Concatenator.MeterInterface$o[33].channel busy:vector ETV
attr interpolationmode sample-hold
attr recordingmode vector
attr source channelBusy
vector 68 DNP3NetworkTopology.meter[34].interface$o.channel busy:vector ETV
attr interpolationmode sample-hold
attr recordingmode vector
attr source channelBusy
vector 69 DNP3NetworkTopology.Concatenator.MeterInterface$o[34].channel busy:vector ETV
attr interpolationmode sample-hold
attr recordingmode vector
attr source channelBusy
vector 70 DNP3NetworkTopology.meter[35].interface$o.channel busy:vector ETV
attr interpolationmode sample-hold
attr recordingmode vector
attr source channelBusy
vector 71 DNP3NetworkTopology.Concatenator.MeterInterface$o[35].channel busy:vector ETV
attr interpolationmode sample-hold
attr recordingmode vector
attr source channelBusy
vector 72 DNP3NetworkTopology.meter[36].interface$o.channel busy:vector ETV
attr interpolationmode sample-hold
attr recordingmode vector
attr source channelBusy
vector 73 DNP3NetworkTopology.Concatenator.MeterInterface$o[36].channel busy:vector ETV
attr interpolationmode sample-hold
attr recordingmode vector
attr source channelBusy
vector 74 DNP3NetworkTopology.meter[37].interface$o.channel busy:vector ETV
attr interpolationmode sample-hold
attr recordingmode vector
attr source channelBusy
vector 75 DNP3NetworkTopology.Concatenator.MeterInterface$o[37].channel busy:vector ETV
attr interpolationmode sample-hold
attr recordingmode vector
attr source channelBusy
vector 76 DNP3NetworkTopology.meter[38].interface$o.channel busy:vector ETV
attr interpolationmode sample-hold
attr recordingmode vector
attr source channelBusy
vector 77 DNP3NetworkTopology.Concatenator.MeterInterface$o[38].channel busy:vector ETV
attr interpolationmode sample-hold
attr recordingmode vector
attr source channelBusy
vector 78 DNP3NetworkTopology.meter[39].interface$o.channel busy:vector ETV
attr interpolationmode sample-hold
attr recordingmode vector
attr source channelBusy
vector 79 DNP3NetworkTopology.Concatenator.MeterInterface$o[39].channel busy:vector ETV
attr interpolationmode sample-hold
attr recordingmode vector
attr source channelBusy
vector 80 DNP3NetworkTopology.meter[40].interface$o.channel busy:vector ETV
attr interpolationmode sample-hold
attr recordingmode vector
attr source channelBusy
vector 81 DNP3NetworkTopology.Concatenator.MeterInterface$o[40].channel busy:vector ETV
attr interpolationmode sample-hold
attr recordingmode vector
attr source channelBusy
vector 82 DNP3NetworkTopology.meter[41].interface$o.channel busy:vector ETV
attr interpolationmode sample-hold
attr recordingmode vector
attr source channelBusy
vector 83 DNP3NetworkTopology.Concatenator.MeterInterface$o[41].channel busy:vector ETV
attr interpolationmode sample-hold
attr recordingmode vector
attr source channelBusy
vector 84 DNP3NetworkTopology.meter[42].interface$o.channel busy:vector ETV
attr interpolationmode sample-hold
attr recordingmode vector
attr source channelBusy
vector 85 DNP3NetworkTopology.Concatenator.MeterInterface$o[42].channel busy:vector ETV
attr interpolationmode sample-hold
attr recordingmode vector
attr source channelBusy
vector 86 DNP3NetworkTopology.meter[43].interface$o.channel busy:vector ETV
attr interpolationmode sample-hold
attr recordingmode vector
attr source channelBusy
vector 87 DNP3NetworkTopology.Concatenator.MeterInterface$o[43].channel busy:vector ETV
attr interpolationmode sample-hold
attr recordingmode vector
attr source channelBusy
vector 88 DNP3NetworkTopology.meter[44].interface$o.channel busy:vector ETV
attr interpolationmode sample-hold
attr recordingmode vector
attr source channelBusy
vector 89 DNP3NetworkTopology.Concatenator.MeterInterface$o[44].channel busy:vector ETV
attr interpolationmode sample-hold
attr recordingmode vector
attr source channelBusy
vector 90 DNP3NetworkTopology.meter[45].interface$o.channel busy:vector ETV
attr interpolationmode sample-hold
attr recordingmode vector
attr source channelBusy
vector 91 DNP3NetworkTopology.Concatenator.MeterInterface$o[45].channel busy:vector ETV
attr interpolationmode sample-hold
attr recordingmode vector
attr source channelBusy
vector 92 DNP3NetworkTopology.meter[46].interface$o.channel busy:vector ETV
attr interpolationmode sample-hold
attr recordingmode vector
attr source channelBusy
vector 93 DNP3NetworkTopology.Concatenator.MeterInterface$o[46].channel busy:vector ETV
attr interpolationmode sample-hold
attr recordingmode vector
attr source channelBusy
vector 94 DNP3NetworkTopology.meter[47].interface$o.channel busy:vector ETV
attr interpolationmode sample-hold
attr recordingmode vector
attr source channelBusy
vector 95 DNP3NetworkTopology.Concatenator.MeterInterface$o[47].channel busy:vector ETV
attr interpolationmode sample-hold
attr recordingmode vector
attr source channelBusy
vector 96 DNP3NetworkTopology.meter[48].interface$o.channel busy:vector ETV
attr interpolationmode sample-hold
attr recordingmode vector
attr source channelBusy
vector 97 DNP3NetworkTopology.Concatenator.MeterInterface$o[48].channel busy:vector ETV
attr interpolationmode sample-hold
attr recordingmode vector
attr source channelBusy
vector 98 DNP3NetworkTopology.meter[49].interface$o.channel busy:vector ETV
attr interpolationmode sample-hold
attr recordingmode vector
attr source channelBusy
vector 99 DNP3NetworkTopology.Concatenator.MeterInterface$o[49].channel busy:vector ETV
attr interpolationmode sample-hold
attr recordingmode vector
attr source channelBusy
vector 100 DNP3NetworkTopology.Concatenator.DAInterface$o.channel busy:vector ETV
attr interpolationmode sample-hold
attr recordingmode vector
attr source channelBusy
vector 101 DNP3NetworkTopology.distAuto.interface$o.channel busy:vector ETV
attr interpolationmode sample-hold
attr recordingmode vector
attr source channelBusy
vector 102 DNP3NetworkTopology.Concatenator queueLength:vector ETV
attr recordingmode vector
attr source queueLength
attr title "Queue Length"
vector 103 DNP3NetworkTopology.distAuto packetDelay:vector ETV
attr recordingmode vector
attr source packetDelay
attr title "Packet Delay"
0	0	0	0
0	1	0	0
0	1	10	1
0	108	10.0544	0
0	108	10.131038461538	1
0	551	10.138176923076	0
0	551	20	1
0	658	20.0544	0
0	658	20.131038461538	1
0	1101	20.138176923076	0
0	1101	30	1
0	1208	30.0544	0
0	1208	30.131038461538	1
0	1651	30.138176923076	0
0	1651	40	1
0	1758	40.0544	0
0	1758	40.131038461538	1
0	2201	40.138176923076	0
0	2201	50	1
0	2308	50.0544	0
0	2308	50.131038461538	1
0	2751	50.138176923076	0
0	2751	60	1
0	2858	60.0544	0
0	2858	60.131038461538	1
0	3301	60.138176923076	0
0	3301	70	1
0	3408	70.0544	0
0	3408	70.131038461538	1
0	3851	70.138176923076	0
0	3851	80	1
0	3958	80.0544	0
0	3958	80.131038461538	1
0	4401	80.138176923076	0
0	4401	90	1
0	4508	90.0544	0
0	4508	90.131038461538	1
0	4951	90.138176923076	0
0	4951	100	1
0	5058	100.0544	0
0	5058	100.131038461538	1
0	5501	100.138176923076	0
0	5501	110	1
0	5608	110.0544	0
0	5608	110.131038461538	1
0	6051	110.138176923076	0
0	6051	120	1
0	6158	120.0544	0
0	6158	120.131038461538	1
0	6601	120.138176923076	0
0	6601	130	1
0	6708	130.0544	0
0	6708	130.131038461538	1
0	7151	130.138176923076	0
0	7151	140	1
0	7258	140.0544	0
0	7258	140.131038461538	1
0	7701	140.138176923076	0
0	7701	150	1
0	7808	150.0544	0
0	7808	150.131038461538	1
0	8251	150.138176923076	0
0	8251	160	1
0	8358	160.0544	0
0	8358	160.131038461538	1
0	8801	160.138176923076	0
0	8801	170	1
0	8908	170.0544	0
0	8908	170.131038461538	1
0	9351	170.138176923076	0
0	9351	180	1
0	9458	180.0544	0
0	9458	180.131038461538	1
0	9901	180.138176923076	0
0	9901	190	1
0	10008	190.0544	0
0	10008	190.131038461538	1
0	10451	190.138176923076	0
0	10451	200	1
0	10558	200.0544	0
0	10558	200.131038461538	1
0	11001	200.138176923076	0
0	11001	210	1
0	11108	210.0544	0
0	11108	210.131038461538	1
0	11551	210.138176923076	0
0	11551	220	1
0	11658	220.0544	0
0	11658	220.131038461538	1
0	12101	220.138176923076	0
0	12101	230	1
0	12208	230.0544	0
0	12208	230.131038461538	1
0	12651	230.138176923076	0
0	12651	240	1
0	12758	240.0544	0
0	12758	240.131038461538	1
0	13201	240.138176923076	0
0	13201	250	1
0	13308	250.0544	0
0	13308	250.131038461538	1
0	13751	250.138176923076	0
0	13751	260	1
0	13858	260.0544	0
0	13858	260.131038461538	1
0	14301	260.138176923076	0
0	14301	270	1
0	14408	270.0544	0
0	14408	270.131038461538	1
0	14851	270.138176923076	0
0	14851	280	1
0	14958	280.0544	0
0	14958	280.131038461538	1
0	15401	280.138176923076	0
0	15401	290	1
0	15508	290.0544	0
0	15508	290.131038461538	1
0	15951	290.138176923076	0
1	0	0	0
1	103	0	0
1	103	10.108275	1
1	107	10.116644230769	0
1	107	10.1219	1
1	653	10.129038461538	0
1	653	20.108275	1
1	657	20.116644230769	0
1	657	20.1219	1
1	1203	20.129038461538	0
1	1203	30.108275	1
1	1207	30.116644230769	0
1	1207	30.1219	1
1	1753	30.129038461538	0
1	1753	40.108275	1
1	1757	40.116644230769	0
1	1757	40.1219	1
1	2303	40.129038461538	0
1	2303	50.108275	1
1	2307	50.116644230769	0
1	2307	50.1219	1
1	2853	50.129038461538	0
1	2853	60.108275	1
1	2857	60.116644230769	0
1	2857	60.1219	1
1	3403	60.129038461538	0
1	3403	70.108275	1
1	3407	70.116644230769	0
1	3407	70.1219	1
1	3953	70.129038461538	0
1	3953	80.108275	1
1	3957	80.116644230769	0
1	3957	80.1219	1
1	4503	80.129038461538	0
1	4503	90.108275	1
1	4507	90.116644230769	0
1	4507	90.1219	1
1	5053	90.129038461538	0
1	5053	100.108275	1
1	5057	100.116644230769	0
1	5057	100.1219	1
1	5603	100.129038461538	0
1	5603	110.108275	1
1	5607	110.116644230769	0
1	5607	110.1219	1
1	6153	110.129038461538	0
1	6153	120.108275	1
1	6157	120.116644230769	0
1	6157	120.1219	1
1	6703	120.129038461538	0
1	6703	130.108275	1
1	6707	130.116644230769	0
1	6707	130.1219	1
1	7253	130.129038461538	0
1	7253	140.108275	1
1	7257	140.116644230769	0
1	7257	140.1219	1
1	7803	140.129038461538	0
1	7803	150.108275	1
1	7807	150.116644230769	0
1	7807	150.1219	1
1	8353	150.129038461538	0
1	8353	160.108275	1
1	8357	160.116644230769	0
1	8357	160.1219	1
1	8903	160.129038461538	0
1	8903	170.108275	1
1	8907	170.116644230769	0
1	8907	170.1219	1
1	9453	170.129038461538	0
1	9453	180.108275	1
1	9457	180.116644230769	0
1	9457	180.1219	1
1	10003	180.129038461538	0
1	10003	190.108275	1
1	10007	190.116644230769	0
1	10007	190.1219	1
1	10553	190.129038461538	0
1	10553	200.108275	1
1	10557	200.116644230769	0
1	10557	200.1219	1
1	11103	200.129038461538	0
1	11103	210.108275	1
1	11107	210.116644230769	0
1	11107	210.1219	1
1	11653	210.129038461538	0
1	11653	220.108275	1
1	11657	220.116644230769	0
1	11657	220.1219	1
1	12203	220.129038461538	0
1	12203	230.108275	1
1	12207	230.116644230769	0
1	12207	230.1219	1
1	12753	230.129038461538	0
1	12753	240.108275	1
1	12757	240.116644230769	0
1	12757	240.1219	1
1	13303	240.129038461538	0
1	13303	250.108275	1
1	13307	250.116644230769	0
1	13307	250.1219	1
1	13853	250.129038461538	0
1	13853	260.108275	1
1	13857	260.116644230769	0
1	13857	260.1219	1
1	14403	260.129038461538	0
1	14403	270.108275	1
1	14407	270.116644230769	0
1	14407	270.1219	1
1	14953	270.129038461538	0
1	14953	280.108275	1
1	14957	280.116644230769	0
1	14957	280.1219	1
1	15503	280.129038461538	0
1	15503	290.108275	1
1	15507	290.116644230769	0
1	15507	290.1219	1
1	15951	290.129038461538	0
2	0	0	0
2	2	0	0
2	2	10	1
2	115	10.0544	0
2	115	10.158913461538	1
2	552	10.166051923076	0
2	552	20	1
2	665	20.0544	0
2	665	20.158913461538	1
2	1102	20.166051923076	0
2	1102	30	1
2	1215	30.0544	0
2	1215	30.158913461538	1
2	1652	30.166051923076	0
2	1652	40	1
2	1765	40.0544	0
2	1765	40.158913461538	1
2	2202	40.166051923076	0
2	2202	50	1
2	2315	50.0544	0
2	2315	50.158913461538	1
2	2752	50.166051923076	0
2	2752	60	1
2	2865	60.0544	0
2	2865	60.158913461538	1
2	3302	60.166051923076	0
2	3302	70	1
2	3415	70.0544	0
2	3415	70.158913461538	1
2	3852	70.166051923076	0
2	3852	80	1
2	3965	80.0544	0
2	3965	80.158913461538	1
2	4402	80.166051923076	0
2	4402	90	1
2	4515	90.0544	0
2	4515	90.158913461538	1
2	4952	90.166051923076	0
2	4952	100	1
2	5065	100.0544	0
2	5065	100.158913461538	1
2	5502	100.166051923076	0
2	5502	110	1
2	5615	110.0544	0
2	5615	110.158913461538	1
2	6052	110.166051923076	0
2	6052	120	1
2	6165	120.0544	0
2	6165	120.158913461538	1
2	6602	120.166051923076	0
2	6602	130	1
2	6715	130.0544	0
2	6715	130.158913461538	1
2	7152	130.166051923076	0
2	7152	140	1
2	7265	140.0544	0
2	7265	140.158913461538	1
2	7702	140.166051923076	0
2	7702	150	1
2	7815	150.0544	0
2	7815	150.158913461538	1
2	8252	150.166051923076	0
2	8252	160	1
2	8365	160.0544	0
2	8365	160.158913461538	1
2	8802	160.166051923076	0
2	8802	170	1
2	8915	170.0544	0
2	8915	170.158913461538	1
2	9352	170.166051923076	0
2	9352	180	1
2	9465	180.0544	0
2	9465	180.158913461538	1
2	9902	180.166051923076	0
2	9902	190	1
2	10015	190.0544	0
2	10015	190.158913461538	1
2	10452	190.166051923076	0
2	10452	200	1
2	10565	200.0544	0
2	10565	200.158913461538	1
2	11002	200.166051923076	0
2	11002	210	1
2	11115	210.0544	0
2	11115	210.158913461538	1
2	11552	210.166051923076	0
2	11552	220	1
2	11665	220.0544	0
2	11665	220.158913461538	1
2	12102	220.166051923076	0
2	12102	230	1
2	12215	230.0544	0
2	12215	230.158913461538	1
2	12652	230.166051923076	0
2	12652	240	1
2	12765	240.0544	0
2	12765	240.158913461538	1
2	13202	240.166051923076	0
2	13202	250	1
2	13315	250.0544	0
2	13315	250.158913461538	1
2	13752	250.166051923076	0
2	13752	260	1
2	13865	260.0544	0
2	13865	260.158913461538	1
2	14302	260.166051923076	0
2	14302	270	1
2	14415	270.0544	0
2	14415	270.158913461538	1
2	14852	270.166051923076	0
2	14852	280	1
2	14965	280.0544	0
2	14965	280.158913461538	1
2	15402	280.166051923076	0
2	15402	290	1
2	15515	290.0544	0
2	15515	290.158913461538	1
2	15951	290.166051923076	0
3	0	0	0
3	109	0	0
3	109	10.13615	1
3	114	10.144519230769	0
3	114	10.149775	1
3	659	10.156913461538	0
3	659	20.13615	1
3	664	20.144519230769	0
3	664	20.149775	1
3	1209	20.156913461538	0
3	1209	30.13615	1
3	1214	30.144519230769	0
3	1214	30.149775	1
3	1759	30.156913461538	0
3	1759	40.13615	1
3	1764	40.144519230769	0
3	1764	40.149775	1
3	2309	40.156913461538	0
3	2309	50.13615	1
3	2314	50.144519230769	0
3	2314	50.149775	1
3	2859	50.156913461538	0
3	2859	60.13615	1
3	2864	60.144519230769	0
3	2864	60.149775	1
3	3409	60.156913461538	0
3	3409	70.13615	1
3	3414	70.144519230769	0
3	3414	70.149775	1
3	3959	70.156913461538	0
3	3959	80.13615	1
3	3964	80.144519230769	0
3	3964	80.149775	1
3	4509	80.156913461538	0
3	4509	90.13615	1
3	4514	90.144519230769	0
3	4514	90.149775	1
3	5059	90.156913461538	0
3	5059	100.13615	1
3	5064	100.144519230769	0
3	5064	100.149775	1
3	5609	100.156913461538	0
3	5609	110.13615	1
3	5614	110.144519230769	0
3	5614	110.149775	1
3	6159	110.156913461538	0
3	6159	120.13615	1
3	6164	120.144519230769	0
3	6164	120.149775	1
3	6709	120.156913461538	0
3	6709	130.13615	1
3	6714	130.144519230769	0
3	6714	130.149775	1
3	7259	130.156913461538	0
3	7259	140.13615	1
3	7264	140.144519230769	0
3	7264	140.149775	1
3	7809	140.156913461538	0
3	7809	150.13615	1
3	7814	150.144519230769	0
3	7814	150.149775	1
3	8359	150.156913461538	0
3	8359	160.13615	1
3	8364	160.144519230769	0
3	8364	160.149775	1
3	8909	160.156913461538	0
3	8909	170.13615	1
3	8914	170.144519230769	0
3	8914	170.149775	1
3	9459	170.156913461538	0
3	9459	180.13615	1
3	9464	180.144519230769	0
3	9464	180.149775	1
3	10009	180.156913461538	0
3	10009	190.13615	1
3	10014	190.144519230769	0
3	10014	190.149775	1
3	10559	190.156913461538	0
3	10559	200.13615	1
3	10564	200.144519230769	0
3	10564	200.149775	1
3	11109	200.156913461538	0
3	11109	210.13615	1
3	11114	210.144519230769	0
3	11114	210.149775	1
3	11659	210.156913461538	0
3	11659	220.13615	1
3	11664	220.144519230769	0
3	11664	220.149775	1
3	12209	220.156913461538	0
3	12209	230.13615	1
3	12214	230.144519230769	0
3	12214	230.149775	1
3	12759	230.156913461538	0
3	12759	240.13615	1
3	12764	240.144519230769	0
3	12764	240.149775	1
3	13309	240.156913461538	0
3	13309	250.13615	1
3	13314	250.144519230769	0
3	13314	250.149775	1
3	13859	250.156913461538	0
3	13859	260.13615	1
3	13864	260.144519230769	0
3	13864	260.149775	1
3	14409	260.156913461538	0
3	14409	270.13615	1
3	14414	270.144519230769	0
3	14414	270.149775	1
3	14959	270.156913461538	0
3	14959	280.13615	1
3	14964	280.144519230769	0
3	14964	280.149775	1
3	15509	280.156913461538	0
3	15509	290.13615	1
3	15514	290.144519230769	0
3	15514	290.149775	1
3	15951	290.156913461538	0
4	0	0	0
4	3	0	0
4	3	10	1
4	122	10.0544	0
4	122	10.186788461538	1
4	553	10.193926923076	0
4	553	20	1
4	672	20.0544	0
4	672	20.186788461538	1
4	1103	20.193926923076	0
4	1103	30	1
4	1222	30.0544	0
4	1222	30.186788461538	1
4	1653	30.193926923076	0
4	1653	40	1
4	1772	40.0544	0
4	1772	40.186788461538	1
4	2203	40.193926923076	0
4	2203	50	1
4	2322	50.0544	0
4	2322	50.186788461538	1
4	2753	50.193926923076	0
4	2753	60	1
4	2872	60.0544	0
4	2872	60.186788461538	1
4	3303	60.193926923076	0
4	3303	70	1
4	3422	70.0544	0
4	3422	70.186788461538	1
4	3853	70.193926923076	0
4	3853	80	1
4	3972	80.0544	0
4	3972	80.186788461538	1
4	4403	80.193926923076	0
4	4403	90	1
4	4522	90.0544	0
4	4522	90.186788461538	1
4	4953	90.193926923076	0
4	4953	100	1
4	5072	100.0544	0
4	5072	100.186788461538	1
4	5503	100.193926923076	0
4	5503	110	1
4	5622	110.0544	0
4	5622	110.186788461538	1
4	6053	110.193926923076	0
4	6053	120	1
4	6172	120.0544	0
4	6172	120.186788461538	1
4	6603	120.193926923076	0
4	6603	130	1
4	6722	130.0544	0
4	6722	130.186788461538	1
4	7153	130.193926923076	0
4	7153	140	1
4	7272	140.0544	0
4	7272	140.186788461538	1
4	7703	140.193926923076	0
4	7703	150	1
4	7822	150.0544	0
4	7822	150.186788461538	1
4	8253	150.193926923076	0
4	8253	160	1
4	8372	160.0544	0
4	8372	160.186788461538	1
4	8803	160.193926923076	0
4	8803	170	1
4	8922	170.0544	0
4	8922	170.186788461538	1
4	9353	170.193926923076	0
4	9353	180	1
4	9472	180.0544	0
4	9472	180.186788461538	1
4	9903	180.193926923076	0
4	9903	190	1
4	10022	190.0544	0
4	10022	190.186788461538	1
4	10453	190.193926923076	0