version 3
run LightTraffic_75-0-20260420-13:15:52-28948
attr configname LightTraffic_75
attr datetime 20260420-13:15:52
attr datetimef 20260420-131552
attr experiment LightTraffic_75
attr inifile omnetpp.ini
attr iterationvars ""
attr iterationvarsd ""
attr iterationvarsf ""
attr measurement ""
attr network DNP3NetworkTopology
attr processid 28948
attr repetition 0
attr replication #0
attr resultdir results
attr runnumber 0
attr seedset 0
config image-path ../../inet4.5/images
config description "Light traffic with 75 smart meters"
config *.numMeters 75
config *.distAuto.numMeters 75
config **.eventInterval 10s
config **.eventBytes 442
config network DNP3NetworkTopology
config sim-time-limit 350s
config output-scalar-file LightTraffic_75.sca
config output-vector-file LightTraffic_75.vec
config **.scalar-recording true
config **.vector-recording true
config **.result-recording-modes all
config *.distAuto.processingDelay 10ms
config **.totalPackets 500
config **.ackTimeout 2s
config **.stopGenerationTime 300s
config *.meter[*].meterId index

vector 0 DNP3NetworkTopology.meter[0].interface$o.channel busy:vector ETV
attr interpolationmode sample-hold
attr recordingmode vector
attr source channelBusy
vector 1 DNP3NetworkTopology.Concatenator.MeterInterface$o[0].channel busy:vector ETV
attr interpolationmode sample-hold
attr recordingmode vector
attr source channelBusy
vector 2 DNP3NetworkTopology.meter[1].interface$o.channel busy:vector ETV
attr interpolationmode sample-hold
attr recordingmode vector
attr source channelBusy
vector 3 DNP3NetworkTopology.Concatenator.MeterInterface$o[1].channel busy:vector ETV
attr interpolationmode sample-hold
attr recordingmode vector
attr source channelBusy
vector 4 DNP3NetworkTopology.meter[2].interface$o.channel busy:vector ETV
attr interpolationmode sample-hold
attr recordingmode vector
attr source channelBusy
vector 5 DNP3NetworkTopology.Concatenator.MeterInterface$o[2].channel busy:vector ETV
attr interpolationmode sample-hold
attr recordingmode vector
attr source channelBusy
vector 6 DNP3NetworkTopology.meter[3].interface$o.channel busy:vector ETV
attr interpolationmode sample-hold
attr recordingmode vector
attr source channelBusy
vector 7 DNP3NetworkTopology.Concatenator.MeterInterface$o[3].channel busy:vector ETV
attr interpolationmode sample-hold
attr recordingmode vector
attr source channelBusy
vector 8 DNP3NetworkTopology.meter[4].interface$o.channel busy:vector ETV
attr interpolationmode sample-hold
attr recordingmode vector
attr source channelBusy
vector 9 DNP3NetworkTopology.Concatenator.MeterInterface$o[4].channel busy:vector ETV
attr interpolationmode sample-hold
attr recordingmode vector
attr source channelBusy
vector 10 DNP3NetworkTopology.meter[5].interface$o.channel busy:vector ETV
attr interpolationmode sample-hold
attr recordingmode vector
attr source channelBusy
vector 11 DNP3NetworkTopology.Concatenator.MeterInterface$o[5].channel busy:vector ETV
attr interpolationmode sample-hold
attr recordingmode vector
attr source channelBusy
vector 12 DNP3NetworkTopology.meter[6].interface$o.channel busy:vector ETV
attr interpolationmode sample-hold
attr recordingmode vector
attr source channelBusy
vector 13 DNP3NetworkTopology.Concatenator.MeterInterface$o[6].channel busy:vector ETV
attr interpolationmode sample-hold
attr recordingmode vector
attr source channelBusy
vector 14 DNP3NetworkTopology.meter[7].interface$o.channel busy:vector ETV
attr interpolationmode sample-hold
attr recordingmode vector
attr source channelBusy
vector 15 DNP3NetworkTopology.Concatenator.MeterInterface$o[7].channel busy:vector ETV
attr interpolationmode sample-hold
attr recordingmode vector
attr source channelBusy
vector 16 DNP3NetworkTopology.meter[8].interface$o.channel busy:vector ETV
attr interpolationmode sample-hold
attr recordingmode vector
attr source channelBusy
vector 17 DNP3NetworkTopology.Concatenator.MeterInterface$o[8].channel busy:vector ETV
attr interpolationmode sample-hold
attr recordingmode vector
attr source channelBusy
vector 18 DNP3NetworkTopology.meter[9].interface$o.channel busy:vector ETV
attr interpolationmode sample-hold
attr recordingmode vector
attr source channelBusy
vector 19 DNP3NetworkTopology.Concatenator.MeterInterface$o[9].channel busy:vector ETV
attr interpolationmode sample-hold
attr recordingmode vector
attr source channelBusy
vector 20 DNP3NetworkTopology.meter[10].interface$o.channel busy:vector ETV
attr interpolationmode sample-hold
attr recordingmode vector
attr source channelBusy
vector 21 DNP3NetworkTopology.Concatenator.MeterInterface$o[10].channel busy:vector ETV
attr interpolationmode sample-hold
attr recordingmode vector
attr source channelBusy
vector 22 DNP3NetworkTopology.meter[11].interface$o.channel busy:vector ETV
attr interpolationmode sample-hold
attr recordingmode vector
attr source channelBusy
vector 23 DNP3NetworkTopology.Concatenator.MeterInterface$o[11].channel busy:vector ETV
attr interpolationmode sample-hold
attr recordingmode vector
attr source channelBusy
vector 24 DNP3NetworkTopology.meter[12].interface$o.channel busy:vector ETV
attr interpolationmode sample-hold
attr recordingmode vector
attr source channelBusy
vector 25 DNP3NetworkTopology.Concatenator.MeterInterface$o[12].channel busy:vector ETV
attr interpolationmode sample-hold
attr recordingmode vector
attr source channelBusy
vector 26 DNP3NetworkTopology.meter[13].interface$o.channel busy:vector ETV
attr interpolationmode sample-hold
attr recordingmode vector
attr source channelBusy
vector 27 DNP3NetworkTopology.Concatenator.MeterInterface$o[13].channel busy:vector ETV
attr interpolationmode sample-hold
attr recordingmode vector
attr source channelBusy
vector 28 DNP3NetworkTopology.meter[14].interface$o.channel busy:vector ETV
attr interpolationmode sample-hold
attr recordingmode vector
attr source channelBusy
vector 29 DNP3NetworkTopology.Concatenator.MeterInterface$o[14].channel busy:vector ETV
attr interpolationmode sample-hold
attr recordingmode vector
attr source channelBusy
vector 30 DNP3NetworkTopology.meter[15].interface$o.channel busy:vector ETV
attr interpolationmode sample-hold
attr recordingmode vector
attr source channelBusy
vector 31 DNP3NetworkTopology.Concatenator.MeterInterface$o[15].channel busy:vector ETV
attr interpolationmode sample-hold
attr recordingmode vector
attr source channelBusy
vector 32 DNP3NetworkTopology.meter[16].interface$o.channel busy:vector ETV
attr interpolationmode sample-hold
attr recordingmode vector
attr source channelBusy
vector 33 DNP3NetworkTopology.Concatenator.MeterInterface$o[16].channel busy:vector ETV
attr interpolationmode sample-hold
attr recordingmode vector
attr source channelBusy
vector 34 DNP3NetworkTopology.meter[17].interface$o.channel busy:vector ETV
attr interpolationmode sample-hold
attr recordingmode vector
attr source channelBusy
vector 35 DNP3NetworkTopology.Concatenator.MeterInterface$o[17].channel busy:vector ETV
attr interpolationmode sample-hold
attr recordingmode vector
attr source channelBusy
vector 36 DNP3NetworkTopology.meter[18].interface$o.channel busy:vector ETV
attr interpolationmode sample-hold
attr recordingmode vector
attr source channelBusy
vector 37 DNP3NetworkTopology.Concatenator.MeterInterface$o[18].channel busy:vector ETV
attr interpolationmode sample-hold
attr recordingmode vector
attr source channelBusy
vector 38 DNP3NetworkTopology.meter[19].interface$o.channel busy:vector ETV
attr interpolationmode sample-hold
attr recordingmode vector
attr source channelBusy
vector 39 DNP3NetworkTopology.Concatenator.MeterInterface$o[19].channel busy:vector ETV
attr interpolationmode sample-hold
attr recordingmode vector
attr source channelBusy
vector 40 DNP3NetworkTopology.meter[20].interface$o.channel busy:vector ETV
attr interpolationmode sample-hold
attr recordingmode vector
attr source channelBusy
vector 41 DNP3NetworkTopology.Concatenator.MeterInterface$o[20].channel busy:vector ETV
attr interpolationmode sample-hold
attr recordingmode vector
attr source channelBusy
vector 42 DNP3NetworkTopology.meter[21].interface$o.channel busy:vector ETV
attr interpolationmode sample-hold
attr recordingmode vector
attr source channelBusy
vector 43 DNP3NetworkTopology.Concatenator.MeterInterface$o[21].channel busy:vector ETV
attr interpolationmode sample-hold
attr recordingmode vector
attr source channelBusy
vector 44 DNP3NetworkTopology.meter[22].interface$o.channel busy:vector ETV
attr interpolationmode sample-hold
attr recordingmode vector
attr source channelBusy
vector 45 DNP3NetworkTopology.Concatenator.MeterInterface$o[22].channel busy:vector ETV
attr interpolationmode sample-hold
attr recordingmode vector
attr source channelBusy
vector 46 DNP3NetworkTopology.meter[23].interface$o.channel busy:vector ETV
attr interpolationmode sample-hold
attr recordingmode vector
attr source channelBusy
vector 47 DNP3NetworkTopology.Concatenator.MeterInterface$o[23].channel busy:vector ETV
attr interpolationmode sample-hold
attr recordingmode vector
attr source channelBusy
vector 48 DNP3NetworkTopology.meter[24].interface$o.channel busy:vector ETV
attr interpolationmode sample-hold
attr recordingmode vector
attr source channelBusy
vector 49 DNP3NetworkTopology.Concatenator.MeterInterface$o[24].channel busy:vector ETV
attr interpolationmode sample-hold
attr recordingmode vector
attr source channelBusy
vector 50 DNP3NetworkTopology.meter[25].interface$o.channel busy:vector ETV
attr interpolationmode sample-hold
attr recordingmode vector
attr source channelBusy
vector 51 DNP3NetworkTopology.Concatenator.MeterInterface$o[25].channel busy:vector ETV
attr interpolationmode sample-hold
attr recordingmode vector
attr source channelBusy
vector 52 DNP3NetworkTopology.meter[26].interface$o.channel busy:vector ETV
attr interpolationmode sample-hold
attr recordingmode vector
attr source channelBusy
vector 53 DNP3NetworkTopology.Concatenator.MeterInterface$o[26].channel busy:vector ETV
attr interpolationmode sample-hold
attr recordingmode vector
attr source channelBusy
vector 54 DNP3NetworkTopology.meter[27].interface$o.channel busy:vector ETV
attr interpolationmode sample-hold
attr recordingmode vector
attr source channelBusy
vector 55 DNP3NetworkTopology.Concatenator.MeterInterface$o[27].channel busy:vector ETV
attr interpolationmode sample-hold
attr recordingmode vector
attr source channelBusy
vector 56 DNP3NetworkTopology.meter[28].interface$o.channel busy:vector ETV
attr interpolationmode sample-hold
attr recordingmode vector
attr source channelBusy
vector 57 DNP3NetworkTopology.Concatenator.MeterInterface$o[28].channel busy:vector ETV
attr interpolationmode sample-hold
attr recordingmode vector
attr source channelBusy
vector 58 DNP3NetworkTopology.meter[29].interface$o.channel busy:vector ETV
attr interpolationmode sample-hold
attr recordingmode vector
attr source channelBusy
vector 59 DNP3NetworkTopology.Concatenator.MeterInterface$o[29].channel busy:vector ETV
attr interpolationmode sample-hold
attr recordingmode vector
attr source channelBusy
vector 60 DNP3NetworkTopology.meter[30].interface$o.channel busy:vector ETV
attr interpolationmode sample-hold
attr recordingmode vector
attr source channelBusy
vector 61 DNP3NetworkTopology.Concatenator.MeterInterface$o[30].channel busy:vector ETV
attr interpolationmode sample-hold
attr recordingmode vector
attr source channelBusy
vector 62 DNP3NetworkTopology.meter[31].interface$o.channel busy:vector ETV
attr interpolationmode sample-hold
attr recordingmode vector
attr source channelBusy
vector 63 DNP3NetworkTopology.Concatenator.MeterInterface$o[31].channel busy:vector ETV
attr interpolationmode sample-hold
attr recordingmode vector
attr source channelBusy
vector 64 DNP3NetworkTopology.meter[32].interface$o.channel busy:vector ETV
attr interpolationmode sample-hold
attr recordingmode vector
attr source channelBusy
vector 65 DNP3NetworkTopology.Concatenator.MeterInterface$o[32].channel busy:vector ETV
attr interpolationmode sample-hold
attr recordingmode vector
attr source channelBusy
vector 66 DNP3NetworkTopology.meter[33].interface$o.channel busy:vector ETV
attr interpolationmode sample-hold
attr recordingmode vector
attr source channelBusy
vector 67 DNP3NetworkTopology.Concatenator.MeterInterface$o[33].channel busy:vector ETV
attr interpolationmode sample-hold
attr recordingmode vector
attr source channelBusy
vector 68 DNP3NetworkTopology.meter[34].interface$o.channel busy:vector ETV
attr interpolationmode sample-hold
attr recordingmode vector
attr source channelBusy
vector 69 DNP3NetworkTopology.Concatenator.MeterInterface$o[34].channel busy:vector ETV
attr interpolationmode sample-hold
attr recordingmode vector
attr source channelBusy
vector 70 DNP3NetworkTopology.meter[35].interface$o.channel busy:vector ETV
attr interpolationmode sample-hold
attr recordingmode vector
attr source channelBusy
vector 71 DNP3NetworkTopology.Concatenator.MeterInterface$o[35].channel busy:vector ETV
attr interpolationmode sample-hold
attr recordingmode vector
attr source channelBusy
vector 72 DNP3NetworkTopology.meter[36].interface$o.channel busy:vector ETV
attr interpolationmode sample-hold
attr recordingmode vector
attr source channelBusy
vector 73 DNP3NetworkTopology.Concatenator.MeterInterface$o[36].channel busy:vector ETV
attr interpolationmode sample-hold
attr recordingmode vector
attr source channelBusy
vector 74 DNP3NetworkTopology.meter[37].interface$o.channel busy:vector ETV
attr interpolationmode sample-hold
attr recordingmode vector
attr source channelBusy
vector 75 DNP3NetworkTopology.Concatenator.MeterInterface$o[37].channel busy:vector ETV
attr interpolationmode sample-hold
attr recordingmode vector
attr source channelBusy
vector 76 DNP3NetworkTopology.meter[38].interface$o.channel busy:vector ETV
attr interpolationmode sample-hold
attr recordingmode vector
attr source channelBusy
vector 77 DNP3NetworkTopology.Concatenator.MeterInterface$o[38].channel busy:vector ETV
attr interpolationmode sample-hold
attr recordingmode vector
attr source channelBusy
vector 78 DNP3NetworkTopology.meter[39].interface$o.channel busy:vector ETV
attr interpolationmode sample-hold
attr recordingmode vector
attr source channelBusy
vector 79 DNP3NetworkTopology.Concatenator.MeterInterface$o[39].channel busy:vector ETV
attr interpolationmode sample-hold
attr recordingmode vector
attr source channelBusy
vector 80 DNP3NetworkTopology.meter[40].interface$o.channel busy:vector ETV
attr interpolationmode sample-hold
attr recordingmode vector
attr source channelBusy
vector 81 DNP3NetworkTopology.Concatenator.MeterInterface$o[40].channel busy:vector ETV
attr interpolationmode sample-hold
attr recordingmode vector
attr source channelBusy
vector 82 DNP3NetworkTopology.meter[41].interface$o.channel busy:vector ETV
attr interpolationmode sample-hold
attr recordingmode vector
attr source channelBusy
vector 83 DNP3NetworkTopology.Concatenator.MeterInterface$o[41].channel busy:vector ETV
attr interpolationmode sample-hold
attr recordingmode vector
attr source channelBusy
vector 84 DNP3NetworkTopology.meter[42].interface$o.channel busy:vector ETV
attr interpolationmode sample-hold
attr recordingmode vector
attr source channelBusy
vector 85 DNP3NetworkTopology.Concatenator.MeterInterface$o[42].channel busy:vector ETV
attr interpolationmode sample-hold
attr recordingmode vector
attr source channelBusy
vector 86 DNP3NetworkTopology.meter[43].interface$o.channel busy:vector ETV
attr interpolationmode sample-hold
attr recordingmode vector
attr source channelBusy
vector 87 DNP3NetworkTopology.Concatenator.MeterInterface$o[43].channel busy:vector ETV
attr interpolationmode sample-hold
attr recordingmode vector
attr source channelBusy
vector 88 DNP3NetworkTopology.meter[44].interface$o.channel busy:vector ETV
attr interpolationmode sample-hold
attr recordingmode vector
attr source channelBusy
vector 89 DNP3NetworkTopology.Concatenator.MeterInterface$o[44].channel busy:vector ETV
attr interpolationmode sample-hold
attr recordingmode vector
attr source channelBusy
vector 90 DNP3NetworkTopology.meter[45].interface$o.channel busy:vector ETV
attr interpolationmode sample-hold
attr recordingmode vector
attr source channelBusy
vector 91 DNP3NetworkTopology.Concatenator.MeterInterface$o[45].channel busy:vector ETV
attr interpolationmode sample-hold
attr recordingmode vector
attr source channelBusy
vector 92 DNP3NetworkTopology.meter[46].interface$o.channel busy:vector ETV
attr interpolationmode sample-hold
attr recordingmode vector
attr source channelBusy
vector 93 DNP3NetworkTopology.Concatenator.MeterInterface$o[46].channel busy:vector ETV
attr interpolationmode sample-hold
attr recordingmode vector
attr source channelBusy
vector 94 DNP3NetworkTopology.meter[47].interface$o.channel busy:vector ETV
attr interpolationmode sample-hold
attr recordingmode vector
attr source channelBusy
vector 95 DNP3NetworkTopology.Concatenator.MeterInterface$o[47].channel busy:vector ETV
attr interpolationmode sample-hold
attr recordingmode vector
attr source channelBusy
vector 96 DNP3NetworkTopology.meter[48].interface$o.channel busy:vector ETV
attr interpolationmode sample-hold
attr recordingmode vector
attr source channelBusy
vector 97 DNP3NetworkTopology.Concatenator.MeterInterface$o[48].channel busy:vector ETV
attr interpolationmode sample-hold
attr recordingmode vector
attr source channelBusy
vector 98 DNP3NetworkTopology.meter[49].interface$o.channel busy:vector ETV
attr interpolationmode sample-hold
attr recordingmode vector
attr source channelBusy
vector 99 DNP3NetworkTopology.Concatenator.MeterInterface$o[49].channel busy:vector ETV
attr interpolationmode sample-hold
attr recordingmode vector
attr source channelBusy
vector 100 DNP3NetworkTopology.meter[50].interface$o.channel busy:vector ETV
attr interpolationmode sample-hold
attr recordingmode vector
attr source channelBusy
vector 101 DNP3NetworkTopology.Concatenator.MeterInterface$o[50].channel busy:vector ETV
attr interpolationmode sample-hold
attr recordingmode vector
attr source channelBusy
vector 102 DNP3NetworkTopology.meter[51].interface$o.channel busy:vector ETV
attr interpolationmode sample-hold
attr recordingmode vector
attr source channelBusy
vector 103 DNP3NetworkTopology.Concatenator.MeterInterface$o[51].channel busy:vector ETV
attr interpolationmode sample-hold
attr recordingmode vector
attr source channelBusy
vector 104 DNP3NetworkTopology.meter[52].interface$o.channel busy:vector ETV
attr interpolationmode sample-hold
attr recordingmode vector
attr source channelBusy
vector 105 DNP3NetworkTopology.Concatenator.MeterInterface$o[52].channel busy:vector ETV
attr interpolationmode sample-hold
attr recordingmode vector
attr source channelBusy
vector 106 DNP3NetworkTopology.meter[53].interface$o.channel busy:vector ETV
attr interpolationmode sample-hold
attr recordingmode vector
attr source channelBusy
vector 107 DNP3NetworkTopology.Concatenator.MeterInterface$o[53].channel busy:vector ETV
attr interpolationmode sample-hold
attr recordingmode vector
attr source channelBusy
vector 108 DNP3NetworkTopology.meter[54].interface$o.channel busy:vector ETV
attr interpolationmode sample-hold
attr recordingmode vector
attr source channelBusy
vector 109 DNP3NetworkTopology.Concatenator.MeterInterface$o[54].channel busy:vector ETV
attr interpolationmode sample-hold
attr recordingmode vector
attr source channelBusy
vector 110 DNP3NetworkTopology.meter[55].interface$o.channel busy:vector ETV
attr interpolationmode sample-hold
attr recordingmode vector
attr source channelBusy
vector 111 DNP3NetworkTopology.Concatenator.MeterInterface$o[55].channel busy:vector ETV
attr interpolationmode sample-hold
attr recordingmode vector
attr source channelBusy
vector 112 DNP3NetworkTopology.meter[56].interface$o.channel busy:vector ETV
attr interpolationmode sample-hold
attr recordingmode vector
attr source channelBusy
vector 113 DNP3NetworkTopology.Concatenator.MeterInterface$o[56].channel busy:vector ETV
attr interpolationmode sample-hold
attr recordingmode vector
attr source channelBusy
vector 114 DNP3NetworkTopology.meter[57].interface$o.channel busy:vector ETV
attr interpolationmode sample-hold
attr recordingmode vector
attr source channelBusy
vector 115 DNP3NetworkTopology.Concatenator.MeterInterface$o[57].channel busy:vector ETV
attr interpolationmode sample-hold
attr recordingmode vector
attr source channelBusy
vector 116 DNP3NetworkTopology.meter[58].interface$o.channel busy:vector ETV
attr interpolationmode sample-hold
attr recordingmode vector
attr source channelBusy
vector 117 DNP3NetworkTopology.Concatenator.MeterInterface$o[58].channel busy:vector ETV
attr interpolationmode sample-hold
attr recordingmode vector
attr source channelBusy
vector 118 DNP3NetworkTopology.meter[59].interface$o.channel busy:vector ETV
attr interpolationmode sample-hold
attr recordingmode vector
attr source channelBusy
vector 119 DNP3NetworkTopology.Concatenator.MeterInterface$o[59].channel busy:vector ETV
attr interpolationmode sample-hold
attr recordingmode vector
attr source channelBusy
vector 120 DNP3NetworkTopology.meter[60].interface$o.channel busy:vector ETV
attr interpolationmode sample-hold
attr recordingmode vector
attr source channelBusy
vector 121 DNP3NetworkTopology.Concatenator.MeterInterface$o[60].channel busy:vector ETV
attr interpolationmode sample-hold
attr recordingmode vector
attr source channelBusy
vector 122 DNP3NetworkTopology.meter[61].interface$o.channel busy:vector ETV
attr interpolationmode sample-hold
attr recordingmode vector
attr source channelBusy
vector 123 DNP3NetworkTopology.Concatenator.MeterInterface$o[61].channel busy:vector ETV
attr interpolationmode sample-hold
attr recordingmode vector
attr source channelBusy
vector 124 DNP3NetworkTopology.meter[62].interface$o.channel busy:vector ETV
attr interpolationmode sample-hold
attr recordingmode vector
attr source channelBusy
vector 125 DNP3NetworkTopology.Concatenator.MeterInterface$o[62].channel busy:vector ETV
attr interpolationmode sample-hold
attr recordingmode vector
attr source channelBusy
vector 126 DNP3NetworkTopology.meter[63].interface$o.channel busy:vector ETV
attr interpolationmode sample-hold
attr recordingmode vector
attr source channelBusy
vector 127 DNP3NetworkTopology.Concatenator.MeterInterface$o[63].channel busy:vector ETV
attr interpolationmode sample-hold
attr recordingmode vector
attr source channelBusy
vector 128 DNP3NetworkTopology.meter[64].interface$o.channel busy:vector ETV
attr interpolationmode sample-hold
attr recordingmode vector
attr source channelBusy
vector 129 DNP3NetworkTopology.Concatenator.MeterInterface$o[64].channel busy:vector ETV
attr interpolationmode sample-hold
attr recordingmode vector
attr source channelBusy
vector 130 DNP3NetworkTopology.meter[65].interface$o.channel busy:vector ETV
attr interpolationmode sample-hold
attr recordingmode vector
attr source channelBusy
vector 131 DNP3NetworkTopology.Concatenator.MeterInterface$o[65].channel busy:vector ETV
attr interpolationmode sample-hold
attr recordingmode vector
attr source channelBusy
vector 132 DNP3NetworkTopology.meter[66].interface$o.channel busy:vector ETV
attr interpolationmode sample-hold
attr recordingmode vector
attr source channelBusy
vector 133 DNP3NetworkTopology.Concatenator.MeterInterface$o[66].channel busy:vector ETV
attr interpolationmode sample-hold
attr recordingmode vector
attr source channelBusy
vector 134 DNP3NetworkTopology.meter[67].interface$o.channel busy:vector ETV
attr interpolationmode sample-hold
attr recordingmode vector
attr source channelBusy
vector 135 DNP3NetworkTopology.Concatenator.MeterInterface$o[67].channel busy:vector ETV
attr interpolationmode sample-hold
attr recordingmode vector
attr source channelBusy
vector 136 DNP3NetworkTopology.meter[68].interface$o.channel busy:vector ETV
attr interpolationmode sample-hold
attr recordingmode vector
attr source channelBusy
vector 137 DNP3NetworkTopology.Concatenator.MeterInterface$o[68].channel busy:vector ETV
attr interpolationmode sample-hold
attr recordingmode vector
attr source channelBusy
vector 138 DNP3NetworkTopology.meter[69].interface$o.channel busy:vector ETV
attr interpolationmode sample-hold
attr recordingmode vector
attr source channelBusy
vector 139 DNP3NetworkTopology.Concatenator.MeterInterface$o[69].channel busy:vector ETV
attr interpolationmode sample-hold
attr recordingmode vector
attr source channelBusy
vector 140 DNP3NetworkTopology.meter[70].interface$o.channel busy:vector ETV
attr interpolationmode sample-hold
attr recordingmode vector
attr source channelBusy
vector 141 DNP3NetworkTopology.Concatenator.MeterInterface$o[70].channel busy:vector ETV
attr interpolationmode sample-hold
attr recordingmode vector
attr source channelBusy
vector 142 DNP3NetworkTopology.meter[71].interface$o.channel busy:vector ETV
attr interpolationmode sample-hold
attr recordingmode vector
attr source channelBusy
vector 143 DNP3NetworkTopology.Concatenator.MeterInterface$o[71].channel busy:vector ETV
attr interpolationmode sample-hold
attr recordingmode vector
attr source channelBusy
vector 144 DNP3NetworkTopology.meter[72].interface$o.channel busy:vector ETV
attr interpolationmode sample-hold
attr recordingmode vector
attr source channelBusy
vector 145 DNP3NetworkTopology.Concatenator.MeterInterface$o[72].channel busy:vector ETV
attr interpolationmode sample-hold
attr recordingmode vector
attr source channelBusy
vector 146 DNP3NetworkTopology.meter[73].interface$o.channel busy:vector ETV
attr interpolationmode sample-hold
attr recordingmode vector
attr source channelBusy
vector 147 DNP3NetworkTopology.Concatenator.MeterInterface$o[73].channel busy:vector ETV
attr interpolationmode sample-hold
attr recordingmode vector
attr source channelBusy
vector 148 DNP3NetworkTopology.meter[74].interface$o.channel busy:vector ETV
attr interpolationmode sample-hold
attr recordingmode vector
attr source channelBusy
vector 149 DNP3NetworkTopology.Concatenator.MeterInterface$o[74].channel busy:vector ETV
attr interpolationmode sample-hold
attr recordingmode vector
attr source channelBusy
vector 150 DNP3NetworkTopology.Concatenator.DAInterface$o.channel busy:vector ETV
attr interpolationmode sample-hold
attr recordingmode vector
attr source channelBusy
vector 151 DNP3NetworkTopology.distAuto.interface$o.channel busy:vector ETV
attr interpolationmode sample-hold
attr recordingmode vector
attr source channelBusy
vector 152 DNP3NetworkTopology.Concatenator queueLength:vector ETV
attr recordingmode vector
attr source queueLength
attr title "Queue Length"
vector 153 DNP3NetworkTopology.distAuto packetDelay:vector ETV
attr recordingmode vector
attr source packetDelay
attr title "Packet Delay"
0	0	0	0
0	1	0	0
0	1	10	1
0	158	10.0544	0
0	158	10.131038461538	1
0	874	10.138176923076	0
0	874	20	1
0	1031	20.0544	0
0	1031	20.131038461538	1
0	1747	20.138176923076	0
0	1747	30	1
0	1904	30.0544	0
0	1904	30.131038461538	1
0	2620	30.138176923076	0
0	2620	40	1
0	2777	40.0544	0
0	2777	40.131038461538	1
0	3493	40.138176923076	0
0	3493	50	1
0	3650	50.0544	0
0	3650	50.131038461538	1
0	4366	50.138176923076	0
0	4366	60	1
0	4523	60.0544	0
0	4523	60.131038461538	1
0	5239	60.138176923076	0
0	5239	70	1
0	5396	70.0544	0
0	5396	70.131038461538	1
0	6112	70.138176923076	0
0	6112	80	1
0	6269	80.0544	0
0	6269	80.131038461538	1
0	6985	80.138176923076	0
0	6985	90	1
0	7142	90.0544	0
0	7142	90.131038461538	1
0	7858	90.138176923076	0
0	7858	100	1
0	8015	100.0544	0
0	8015	100.131038461538	1
0	8731	100.138176923076	0
0	8731	110	1
0	8888	110.0544	0
0	8888	110.131038461538	1
0	9604	110.138176923076	0
0	9604	120	1
0	9761	120.0544	0
0	9761	120.131038461538	1
0	10477	120.138176923076	0
0	10477	130	1
0	10634	130.0544	0
0	10634	130.131038461538	1
0	11350	130.138176923076	0
0	11350	140	1
0	11507	140.0544	0
0	11507	140.131038461538	1
0	12223	140.138176923076	0
0	12223	150	1
0	12380	150.0544	0
0	12380	150.131038461538	1
0	13096	150.138176923076	0
0	13096	160	1
0	13253	160.0544	0
0	13253	160.131038461538	1
0	13969	160.138176923076	0
0	13969	170	1
0	14126	170.0544	0
0	14126	170.131038461538	1
0	14842	170.138176923076	0
0	14842	180	1
0	14999	180.0544	0
0	14999	180.131038461538	1
0	15715	180.138176923076	0
0	15715	190	1
0	15872	190.0544	0
0	15872	190.131038461538	1
0	16588	190.138176923076	0
0	16588	200	1
0	16745	200.0544	0
0	16745	200.131038461538	1
0	17461	200.138176923076	0
0	17461	210	1
0	17618	210.0544	0
0	17618	210.131038461538	1
0	18334	210.138176923076	0
0	18334	220	1
0	18491	220.0544	0
0	18491	220.131038461538	1
0	19207	220.138176923076	0
0	19207	230	1
0	19364	230.0544	0
0	19364	230.131038461538	1
0	20080	230.138176923076	0
0	20080	240	1
0	20237	240.0544	0
0	20237	240.131038461538	1
0	20953	240.138176923076	0
0	20953	250	1
0	21110	250.0544	0
0	21110	250.131038461538	1
0	21826	250.138176923076	0
0	21826	260	1
0	21983	260.0544	0
0	21983	260.131038461538	1
0	22699	260.138176923076	0
0	22699	270	1
0	22856	270.0544	0
0	22856	270.131038461538	1
0	23572	270.138176923076	0
0	23572	280	1
0	23729	280.0544	0
0	23729	280.131038461538	1
0	24445	280.138176923076	0
0	24445	290	1
0	24602	290.0544	0
0	24602	290.131038461538	1
0	25318	290.138176923076	0
1	0	0	0
1	153	0	0
1	153	10.108275	1
1	157	10.116644230769	0
1	157	10.1219	1
1	1026	10.129038461538	0
1	1026	20.108275	1
1	1030	20.116644230769	0
1	1030	20.1219	1
1	1899	20.129038461538	0
1	1899	30.108275	1
1	1903	30.116644230769	0
1	1903	30.1219	1
1	2772	30.129038461538	0
1	2772	40.108275	1
1	2776	40.116644230769	0
1	2776	40.1219	1
1	3645	40.129038461538	0
1	3645	50.108275	1
1	3649	50.116644230769	0
1	3649	50.1219	1
1	4518	50.129038461538	0
1	4518	60.108275	1
1	4522	60.116644230769	0
1	4522	60.1219	1
1	5391	60.129038461538	0
1	5391	70.108275	1
1	5395	70.116644230769	0
1	5395	70.1219	1
1	6264	70.129038461538	0
1	6264	80.108275	1
1	6268	80.116644230769	0
1	6268	80.1219	1
1	7137	80.129038461538	0
1	7137	90.108275	1
1	7141	90.116644230769	0
1	7141	90.1219	1
1	8010	90.129038461538	0
1	8010	100.108275	1