version 3
run LightTraffic_25-0-20260420-13:01:50-3248
attr configname LightTraffic_25
attr datetime 20260420-13:01:50
attr datetimef 20260420-130150
attr experiment LightTraffic_25
attr inifile omnetpp.ini
attr iterationvars ""
attr iterationvarsd ""
attr iterationvarsf ""
attr measurement ""
attr network DNP3NetworkTopology
attr processid 3248
attr repetition 0
attr replication #0
attr resultdir results
attr runnumber 0
attr seedset 0
config image-path ../../inet4.5/images
config description "Light traffic with 25 smart meters"
config *.numMeters 25
config *.distAuto.numMeters 25
config **.eventInterval 10s
config **.eventBytes 442
config network DNP3NetworkTopology
config sim-time-limit 350s
config output-scalar-file LightTraffic_25.sca
config output-vector-file LightTraffic_25.vec
config **.scalar-recording true
config **.vector-recording true
config **.result-recording-modes all
config *.distAuto.processingDelay 10ms
config **.totalPackets 500
config **.ackTimeout 2s
config **.stopGenerationTime 300s
config *.meter[*].meterId index

vector 0 DNP3NetworkTopology.meter[0].interface$o.channel busy:vector ETV
attr interpolationmode sample-hold
attr recordingmode vector
attr source channelBusy
vector 1 DNP3NetworkTopology.Concatenator.MeterInterface$o[0].channel busy:vector ETV
attr interpolationmode sample-hold
attr recordingmode vector
attr source channelBusy
vector 2 DNP3NetworkTopology.meter[1].interface$o.channel busy:vector ETV
attr interpolationmode sample-hold
attr recordingmode vector
attr source channelBusy
vector 3 DNP3NetworkTopology.Concatenator.MeterInterface$o[1].channel busy:vector ETV
attr interpolationmode sample-hold
attr recordingmode vector
attr source channelBusy
vector 4 DNP3NetworkTopology.meter[2].interface$o.channel busy:vector ETV
attr interpolationmode sample-hold
attr recordingmode vector
attr source channelBusy
vector 5 DNP3NetworkTopology.Concatenator.MeterInterface$o[2].channel busy:vector ETV
attr interpolationmode sample-hold
attr recordingmode vector
attr source channelBusy
vector 6 DNP3NetworkTopology.meter[3].interface$o.channel busy:vector ETV
attr interpolationmode sample-hold
attr recordingmode vector
attr source channelBusy
vector 7 DNP3NetworkTopology.Concatenator.MeterInterface$o[3].channel busy:vector ETV
attr interpolationmode sample-hold
attr recordingmode vector
attr source channelBusy
vector 8 DNP3NetworkTopology.meter[4].interface$o.channel busy:vector ETV
attr interpolationmode sample-hold
attr recordingmode vector
attr source channelBusy
vector 9 DNP3NetworkTopology.Concatenator.MeterInterface$o[4].channel busy:vector ETV
attr interpolationmode sample-hold
attr recordingmode vector
attr source channelBusy
vector 10 DNP3NetworkTopology.meter[5].interface$o.channel busy:vector ETV
attr interpolationmode sample-hold
attr recordingmode vector
attr source channelBusy
vector 11 DNP3NetworkTopology.Concatenator.MeterInterface$o[5].channel busy:vector ETV
attr interpolationmode sample-hold
attr recordingmode vector
attr source channelBusy
vector 12 DNP3NetworkTopology.meter[6].interface$o.channel busy:vector ETV
attr interpolationmode sample-hold
attr recordingmode vector
attr source channelBusy
vector 13 DNP3NetworkTopology.Concatenator.MeterInterface$o[6].channel busy:vector ETV
attr interpolationmode sample-hold
attr recordingmode vector
attr source channelBusy
vector 14 DNP3NetworkTopology.meter[7].interface$o.channel busy:vector ETV
attr interpolationmode sample-hold
attr recordingmode vector
attr source channelBusy
vector 15 DNP3NetworkTopology.Concatenator.MeterInterface$o[7].channel busy:vector ETV
attr interpolationmode sample-hold
attr recordingmode vector
attr source channelBusy
vector 16 DNP3NetworkTopology.meter[8].interface$o.channel busy:vector ETV
attr interpolationmode sample-hold
attr recordingmode vector
attr source channelBusy
vector 17 DNP3NetworkTopology.Concatenator.MeterInterface$o[8].channel busy:vector ETV
attr interpolationmode sample-hold
attr recordingmode vector
attr source channelBusy
vector 18 DNP3NetworkTopology.meter[9].interface$o.channel busy:vector ETV
attr interpolationmode sample-hold
attr recordingmode vector
attr source channelBusy
vector 19 DNP3NetworkTopology.Concatenator.MeterInterface$o[9].channel busy:vector ETV
attr interpolationmode sample-hold
attr recordingmode vector
attr source channelBusy
vector 20 DNP3NetworkTopology.meter[10].interface$o.channel busy:vector ETV
attr interpolationmode sample-hold
attr recordingmode vector
attr source channelBusy
vector 21 DNP3NetworkTopology.Concatenator.MeterInterface$o[10].channel busy:vector ETV
attr interpolationmode sample-hold
attr recordingmode vector
attr source channelBusy
vector 22 DNP3NetworkTopology.meter[11].interface$o.channel busy:vector ETV
attr interpolationmode sample-hold
attr recordingmode vector
attr source channelBusy
vector 23 DNP3NetworkTopology.Concatenator.MeterInterface$o[11].channel busy:vector ETV
attr interpolationmode sample-hold
attr recordingmode vector
attr source channelBusy
vector 24 DNP3NetworkTopology.meter[12].interface$o.channel busy:vector ETV
attr interpolationmode sample-hold
attr recordingmode vector
attr source channelBusy
vector 25 DNP3NetworkTopology.Concatenator.MeterInterface$o[12].channel busy:vector ETV
attr interpolationmode sample-hold
attr recordingmode vector
attr source channelBusy
vector 26 DNP3NetworkTopology.meter[13].interface$o.channel busy:vector ETV
attr interpolationmode sample-hold
attr recordingmode vector
attr source channelBusy
vector 27 DNP3NetworkTopology.Concatenator.MeterInterface$o[13].channel busy:vector ETV
attr interpolationmode sample-hold
attr recordingmode vector
attr source channelBusy
vector 28 DNP3NetworkTopology.meter[14].interface$o.channel busy:vector ETV
attr interpolationmode sample-hold
attr recordingmode vector
attr source channelBusy
vector 29 DNP3NetworkTopology.Concatenator.MeterInterface$o[14].channel busy:vector ETV
attr interpolationmode sample-hold
attr recordingmode vector
attr source channelBusy
vector 30 DNP3NetworkTopology.meter[15].interface$o.channel busy:vector ETV
attr interpolationmode sample-hold
attr recordingmode vector
attr source channelBusy
vector 31 DNP3NetworkTopology.Concatenator.MeterInterface$o[15].channel busy:vector ETV
attr interpolationmode sample-hold
attr recordingmode vector
attr source channelBusy
vector 32 DNP3NetworkTopology.meter[16].interface$o.channel busy:vector ETV
attr interpolationmode sample-hold
attr recordingmode vector
attr source channelBusy
vector 33 DNP3NetworkTopology.Concatenator.MeterInterface$o[16].channel busy:vector ETV
attr interpolationmode sample-hold
attr recordingmode vector
attr source channelBusy
vector 34 DNP3NetworkTopology.meter[17].interface$o.channel busy:vector ETV
attr interpolationmode sample-hold
attr recordingmode vector
attr source channelBusy
vector 35 DNP3NetworkTopology.Concatenator.MeterInterface$o[17].channel busy:vector ETV
attr interpolationmode sample-hold
attr recordingmode vector
attr source channelBusy
vector 36 DNP3NetworkTopology.meter[18].interface$o.channel busy:vector ETV
attr interpolationmode sample-hold
attr recordingmode vector
attr source channelBusy
vector 37 DNP3NetworkTopology.Concatenator.MeterInterface$o[18].channel busy:vector ETV
attr interpolationmode sample-hold
attr recordingmode vector
attr source channelBusy
vector 38 DNP3NetworkTopology.meter[19].interface$o.channel busy:vector ETV
attr interpolationmode sample-hold
attr recordingmode vector
attr source channelBusy
vector 39 DNP3NetworkTopology.Concatenator.MeterInterface$o[19].channel busy:vector ETV
attr interpolationmode sample-hold
attr recordingmode vector
attr source channelBusy
vector 40 DNP3NetworkTopology.meter[20].interface$o.channel busy:vector ETV
attr interpolationmode sample-hold
attr recordingmode vector
attr source channelBusy
vector 41 DNP3NetworkTopology.Concatenator.MeterInterface$o[20].channel busy:vector ETV
attr interpolationmode sample-hold
attr recordingmode vector
attr source channelBusy
vector 42 DNP3NetworkTopology.meter[21].interface$o.channel busy:vector ETV
attr interpolationmode sample-hold
attr recordingmode vector
attr source channelBusy
vector 43 DNP3NetworkTopology.Concatenator.MeterInterface$o[21].channel busy:vector ETV
attr interpolationmode sample-hold
attr recordingmode vector
attr source channelBusy
vector 44 DNP3NetworkTopology.meter[22].interface$o.channel busy:vector ETV
attr interpolationmode sample-hold
attr recordingmode vector
attr source channelBusy
vector 45 DNP3NetworkTopology.Concatenator.MeterInterface$o[22].channel busy:vector ETV
attr interpolationmode sample-hold
attr recordingmode vector
attr source channelBusy
vector 46 DNP3NetworkTopology.meter[23].interface$o.channel busy:vector ETV
attr interpolationmode sample-hold
attr recordingmode vector
attr source channelBusy
vector 47 DNP3NetworkTopology.Concatenator.MeterInterface$o[23].channel busy:vector ETV
attr interpolationmode sample-hold
attr recordingmode vector
attr source channelBusy
vector 48 DNP3NetworkTopology.meter[24].interface$o.channel busy:vector ETV
attr interpolationmode sample-hold
attr recordingmode vector
attr source channelBusy
vector 49 DNP3NetworkTopology.Concatenator.MeterInterface$o[24].channel busy:vector ETV
attr interpolationmode sample-hold
attr recordingmode vector
attr source channelBusy
vector 50 DNP3NetworkTopology.Concatenator.DAInterface$o.channel busy:vector ETV
attr interpolationmode sample-hold
attr recordingmode vector
attr source channelBusy
vector 51 DNP3NetworkTopology.distAuto.interface$o.channel busy:vector ETV
attr interpolationmode sample-hold
attr recordingmode vector
attr source channelBusy
vector 52 DNP3NetworkTopology.Concatenator queueLength:vector ETV
attr recordingmode vector
attr source queueLength
attr title "Queue Length"
vector 53 DNP3NetworkTopology.distAuto packetDelay:vector ETV
attr recordingmode vector
attr source packetDelay
attr title "Packet Delay"
0	0	0	0
0	1	0	0
0	1	10	1
0	58	10.0544	0
0	58	10.131038461538	1
0	276	10.138176923076	0
0	276	20	1
0	333	20.0544	0
0	333	20.131038461538	1
0	551	20.138176923076	0
0	551	30	1
0	608	30.0544	0
0	608	30.131038461538	1
0	826	30.138176923076	0
0	826	40	1
0	883	40.0544	0
0	883	40.131038461538	1
0	1101	40.138176923076	0
0	1101	50	1
0	1158	50.0544	0
0	1158	50.131038461538	1
0	1376	50.138176923076	0
0	1376	60	1
0	1433	60.0544	0
0	1433	60.131038461538	1
0	1651	60.138176923076	0
0	1651	70	1
0	1708	70.0544	0
0	1708	70.131038461538	1
0	1926	70.138176923076	0
0	1926	80	1
0	1983	80.0544	0
0	1983	80.131038461538	1
0	2201	80.138176923076	0
0	2201	90	1
0	2258	90.0544	0
0	2258	90.131038461538	1
0	2476	90.138176923076	0
0	2476	100	1
0	2533	100.0544	0
0	2533	100.131038461538	1
0	2751	100.138176923076	0
0	2751	110	1
0	2808	110.0544	0
0	2808	110.131038461538	1
0	3026	110.138176923076	0
0	3026	120	1
0	3083	120.0544	0
0	3083	120.131038461538	1
0	3301	120.138176923076	0
0	3301	130	1
0	3358	130.0544	0
0	3358	130.131038461538	1
0	3576	130.138176923076	0
0	3576	140	1
0	3633	140.0544	0
0	3633	140.131038461538	1
0	3851	140.138176923076	0
0	3851	150	1
0	3908	150.0544	0
0	3908	150.131038461538	1
0	4126	150.138176923076	0
0	4126	160	1
0	4183	160.0544	0
0	4183	160.131038461538	1
0	4401	160.138176923076	0
0	4401	170	1
0	4458	170.0544	0
0	4458	170.131038461538	1
0	4676	170.138176923076	0
0	4676	180	1
0	4733	180.0544	0
0	4733	180.131038461538	1
0	4951	180.138176923076	0
0	4951	190	1
0	5008	190.0544	0
0	5008	190.131038461538	1
0	5226	190.138176923076	0
0	5226	200	1
0	5283	200.0544	0
0	5283	200.131038461538	1
0	5501	200.138176923076	0
0	5501	210	1
0	5558	210.0544	0
0	5558	210.131038461538	1
0	5776	210.138176923076	0
0	5776	220	1
0	5833	220.0544	0
0	5833	220.131038461538	1
0	6051	220.138176923076	0
0	6051	230	1
0	6108	230.0544	0
0	6108	230.131038461538	1
0	6326	230.138176923076	0
0	6326	240	1
0	6383	240.0544	0
0	6383	240.131038461538	1
0	6601	240.138176923076	0
0	6601	250	1
0	6658	250.0544	0
0	6658	250.131038461538	1
0	6876	250.138176923076	0
0	6876	260	1
0	6933	260.0544	0
0	6933	260.131038461538	1
0	7151	260.138176923076	0
0	7151	270	1
0	7208	270.0544	0
0	7208	270.131038461538	1
0	7426	270.138176923076	0
0	7426	280	1
0	7483	280.0544	0
0	7483	280.131038461538	1
0	7701	280.138176923076	0
0	7701	290	1
0	7758	290.0544	0
0	7758	290.131038461538	1
0	7976	290.138176923076	0
1	0	0	0
1	53	0	0
1	53	10.108275	1
1	57	10.116644230769	0
1	57	10.1219	1
1	328	10.129038461538	0
1	328	20.108275	1
1	332	20.116644230769	0
1	332	20.1219	1
1	603	20.129038461538	0
1	603	30.108275	1
1	607	30.116644230769	0
1	607	30.1219	1
1	878	30.129038461538	0
1	878	40.108275	1
1	882	40.116644230769	0
1	882	40.1219	1
1	1153	40.129038461538	0
1	1153	50.108275	1
1	1157	50.116644230769	0
1	1157	50.1219	1
1	1428	50.129038461538	0
1	1428	60.108275	1
1	1432	60.116644230769	0
1	1432	60.1219	1
1	1703	60.129038461538	0
1	1703	70.108275	1
1	1707	70.116644230769	0
1	1707	70.1219	1
1	1978	70.129038461538	0
1	1978	80.108275	1
1	1982	80.116644230769	0
1	1982	80.1219	1
1	2253	80.129038461538	0
1	2253	90.108275	1
1	2257	90.116644230769	0
1	2257	90.1219	1
1	2528	90.129038461538	0
1	2528	100.108275	1
1	2532	100.116644230769	0
1	2532	100.1219	1
1	2803	100.129038461538	0
1	2803	110.108275	1
1	2807	110.116644230769	0
1	2807	110.1219	1
1	3078	110.129038461538	0
1	3078	120.108275	1
1	3082	120.116644230769	0
1	3082	120.1219	1
1	3353	120.129038461538	0
1	3353	130.108275	1
1	3357	130.116644230769	0
1	3357	130.1219	1
1	3628	130.129038461538	0
1	3628	140.108275	1
1	3632	140.116644230769	0
1	3632	140.1219	1
1	3903	140.129038461538	0
1	3903	150.108275	1
1	3907	150.116644230769	0
1	3907	150.1219	1
1	4178	150.129038461538	0
1	4178	160.108275	1
1	4182	160.116644230769	0
1	4182	160.1219	1
1	4453	160.129038461538	0
1	4453	170.108275	1
1	4457	170.116644230769	0
1	4457	170.1219	1
1	4728	170.129038461538	0
1	4728	180.108275	1
1	4732	180.116644230769	0
1	4732	180.1219	1
1	5003	180.129038461538	0
1	5003	190.108275	1
1	5007	190.116644230769	0
1	5007	190.1219	1
1	5278	190.129038461538	0
1	5278	200.108275	1
1	5282	200.116644230769	0
1	5282	200.1219	1
1	5553	200.129038461538	0
1	5553	210.108275	1
1	5557	210.116644230769	0
1	5557	210.1219	1
1	5828	210.129038461538	0
1	5828	220.108275	1
1	5832	220.116644230769	0
1	5832	220.1219	1
1	6103	220.129038461538	0
1	6103	230.108275	1
1	6107	230.116644230769	0
1	6107	230.1219	1
1	6378	230.129038461538	0
1	6378	240.108275	1
1	6382	240.116644230769	0
1	6382	240.1219	1
1	6653	240.129038461538	0
1	6653	250.108275	1
1	6657	250.116644230769	0
1	6657	250.1219	1
1	6928	250.129038461538	0
1	6928	260.108275	1
1	6932	260.116644230769	0
1	6932	260.1219	1
1	7203	260.129038461538	0
1	7203	270.108275	1
1	7207	270.116644230769	0
1	7207	270.1219	1
1	7478	270.129038461538	0
1	7478	280.108275	1
1	7482	280.116644230769	0
1	7482	280.1219	1
1	7753	280.129038461538	0
1	7753	290.108275	1
1	7757	290.116644230769	0
1	7757	290.1219	1
1	7976	290.129038461538	0
2	0	0	0
2	2	0	0
2	2	10	1
2	65	10.0544	0
2	65	10.158913461538	1
2	277	10.166051923076	0
2	277	20	1
2	340	20.0544	0
2	340	20.158913461538	1
2	552	20.166051923076	0
2	552	30	1
2	615	30.0544	0
2	615	30.158913461538	1
2	827	30.166051923076	0
2	827	40	1
2	890	40.0544	0
2	890	40.158913461538	1
2	1102	40.166051923076	0
2	1102	50	1
2	1165	50.0544	0
2	1165	50.158913461538	1
2	1377	50.166051923076	0
2	1377	60	1
2	1440	60.0544	0
2	1440	60.158913461538	1
2	1652	60.166051923076	0
2	1652	70	1
2	1715	70.0544	0
2	1715	70.158913461538	1
2	1927	70.166051923076	0
2	1927	80	1
2	1990	80.0544	0
2	1990	80.158913461538	1
2	2202	80.166051923076	0
2	2202	90	1
2	2265	90.0544	0
2	2265	90.158913461538	1
2	2477	90.166051923076	0
2	2477	100	1
2	2540	100.0544	0
2	2540	100.158913461538	1
2	2752	100.166051923076	0
2	2752	110	1
2	2815	110.0544	0
2	2815	110.158913461538	1
2	3027	110.166051923076	0
2	3027	120	1
2	3090	120.0544	0
2	3090	120.158913461538	1
2	3302	120.166051923076	0
2	3302	130	1
2	3365	130.0544	0
2	3365	130.158913461538	1
2	3577	130.166051923076	0
2	3577	140	1
2	3640	140.0544	0
2	3640	140.158913461538	1
2	3852	140.166051923076	0
2	3852	150	1
2	3915	150.0544	0
2	3915	150.158913461538	1
2	4127	150.166051923076	0
2	4127	160	1
2	4190	160.0544	0
2	4190	160.158913461538	1
2	4402	160.166051923076	0
2	4402	170	1
2	4465	170.0544	0
2	4465	170.158913461538	1
2	4677	170.166051923076	0
2	4677	180	1
2	4740	180.0544	0
2	4740	180.158913461538	1
2	4952	180.166051923076	0
2	4952	190	1
2	5015	190.0544	0
2	5015	190.158913461538	1
2	5227	190.166051923076	0
2	5227	200	1
2	5290	200.0544	0
2	5290	200.158913461538	1
2	5502	200.166051923076	0
2	5502	210	1
2	5565	210.0544	0
2	5565	210.158913461538	1
2	5777	210.166051923076	0
2	5777	220	1
2	5840	220.0544	0
2	5840	220.158913461538	1
2	6052	220.166051923076	0
2	6052	230	1
2	6115	230.0544	0
2	6115	230.158913461538	1
2	6327	230.166051923076	0
2	6327	240	1
2	6390	240.0544	0
2	6390	240.158913461538	1
2	6602	240.166051923076	0
2	6602	250	1
2	6665	250.0544	0
2	6665	250.158913461538	1
2	6877	250.166051923076	0
2	6877	260	1
2	6940	260.0544	0
2	6940	260.158913461538	1
2	7152	260.166051923076	0
2	7152	270	1
2	7215	270.0544	0
2	7215	270.158913461538	1
2	7427	270.166051923076	0
2	7427	280	1
2	7490	280.0544	0
2	7490	280.158913461538	1
2	7702	280.166051923076	0
2	7702	290	1
2	7765	290.0544	0
2	7765	290.158913461538	1
2	7976	290.166051923076	0
3	0	0	0
3	59	0	0
3	59	10.13615	1
3	64	10.144519230769	0
3	64	10.149775	1
3	334	10.156913461538	0
3	334	20.13615	1
3	339	20.144519230769	0
3	339	20.149775	1
3	609	20.156913461538	0
3	609	30.13615	1
3	614	30.144519230769	0
3	614	30.149775	1
3	884	30.156913461538	0
3	884	40.13615	1
3	889	40.144519230769	0
3	889	40.149775	1
3	1159	40.156913461538	0
3	1159	50.13615	1
3	1164	50.144519230769	0
3	1164	50.149775	1
3	1434	50.156913461538	0
3	1434	60.13615	1
3	1439	60.144519230769	0
3	1439	60.149775	1
3	1709	60.156913461538	0
3	1709	70.13615	1
3	1714	70.144519230769	0
3	1714	70.149775	1
3	1984	70.156913461538	0
3	1984	80.13615	1
3	1989	80.144519230769	0
3	1989	80.149775	1
3	2259	80.156913461538	0
3	2259	90.13615	1
3	2264	90.144519230769	0
3	2264	90.149775	1
3	2534	90.156913461538	0
3	2534	100.13615	1
3	2539	100.144519230769	0
3	2539	100.149775	1
3	2809	100.156913461538	0
3	2809	110.13615	1
3	2814	110.144519230769	0
3	2814	110.149775	1
3	3084	110.156913461538	0
3	3084	120.13615	1
3	3089	120.144519230769	0
3	3089	120.149775	1
3	3359	120.156913461538	0
3	3359	130.13615	1
3	3364	130.144519230769	0
3	3364	130.149775	1
3	3634	130.156913461538	0
3	3634	140.13615	1
3	3639	140.144519230769	0
3	3639	140.149775	1
3	3909	140.156913461538	0
3	3909	150.13615	1
3	3914	150.144519230769	0
3	3914	150.149775	1
3	4184	150.156913461538	0
3	4184	160.13615	1
3	4189	160.144519230769	0
3	4189	160.149775	1
3	4459	160.156913461538	0
3	4459	170.13615	1
3	4464	170.144519230769	0
3	4464	170.149775	1
3	4734	170.156913461538	0
3	4734	180.13615	1
3	4739	180.144519230769	0
3	4739	180.149775	1
3	5009	180.156913461538	0
3	5009	190.13615	1
3	5014	190.144519230769	0
3	5014	190.149775	1
3	5284	190.156913461538	0
3	5284	200.13615	1
3	5289	200.144519230769	0
3	5289	200.149775	1
3	5559	200.156913461538	0
3	5559	210.13615	1
3	5564	210.144519230769	0
3	5564	210.149775	1
3	5834	210.156913461538	0
3	5834	220.13615	1
3	5839	220.144519230769	0
3	5839	220.149775	1
3	6109	220.156913461538	0
3	6109	230.13615	1
3	6114	230.144519230769	0
3	6114	230.149775	1
3	6384	230.156913461538	0
3	6384	240.13615	1
3	6389	240.144519230769	0
3	6389	240.149775	1
3	6659	240.156913461538	0
3	6659	250.13615	1
3	6664	250.144519230769	0
3	6664	250.149775	1
3	6934	250.156913461538	0
3	6934	260.13615	1
3	6939	260.144519230769	0
3	6939	260.149775	1
3	7209	260.156913461538	0
3	7209	270.13615	1
3	7214	270.144519230769	0
3	7214	270.149775	1
3	7484	270.156913461538	0
3	7484	280.13615	1
3	7489	280.144519230769	0
3	7489	280.149775	1
3	7759	280.156913461538	0
3	7759	290.13615	1
3	7764	290.144519230769	0
3	7764	290.149775	1
3	7976	290.156913461538	0
4	0	0	0
4	3	0	0
4	3	10	1
4	72	10.0544	0
4	72	10.186788461538	1
4	278	10.193926923076	0
4	278	20	1
4	347	20.0544	0
4	347	20.186788461538	1
4	553	20.193926923076	0
4	553	30	1
4	622	30.0544	0
4	622	30.186788461538	1
4	828	30.193926923076	0
4	828	40	1
4	897	40.0544	0
4	897	40.186788461538	1
4	1103	40.193926923076	0
4	1103	50	1
4	1172	50.0544	0
4	1172	50.186788461538	1
4	1378	50.193926923076	0
4	1378	60	1
4	1447	60.0544	0
4	1447	60.186788461538	1
4	1653	60.193926923076	0
4	1653	70	1
4	1722	70.0544	0
4	1722	70.186788461538	1
4	1928	70.193926923076	0
4	1928	80	1
4	1997	80.0544	0
4	1997	80.186788461538	1
4	2203	80.193926923076	0
4	2203	90	1
4	2272	90.0544	0
4	2272	90.186788461538	1
4	2478	90.193926923076	0
4	2478	100	1
4	2547	100.0544	0
4	2547	100.186788461538	1
4	2753	100.193926923076	0
4	2753	110	1
4	2822	110.0544	0
4	2822	110.186788461538	1
4	3028	110.193926923076	0
4	3028	120	1
4	3097	120.0544	0
4	3097	120.186788461538	1
4	3303	120.193926923076	0
4	3303	130	1
4	3372	130.0544	0
4	3372	130.186788461538	1
4	3578	130.193926923076	0
4	3578	140	1
4	3647	140.0544	0
4	3647	140.186788461538	1
4	3853	140.193926923076	0
4	3853	150	1
4	3922	150.0544	0
4	3922	150.186788461538	1
4	4128	150.193926923076	0
4	4128	160	1
4	4197	160.0544	0
4	4197	160.186788461538	1
4	4403	160.193926923076	0
4	4403	170	1
4	4472	170.0544	0
4	4472	170.186788461538	1
4	4678	170.193926923076	0
4	4678	180	1
4	4747	180.0544	0
4	4747	180.186788461538	1
4	4953	180.193926923076	0
4	4953	190	1
4	5022	190.0544	0
4	5022	190.186788461538	1
4	5228	190.193926923076	0
4	5228	200	1
4	5297	200.0544	0
4	5297	200.186788461538	1
4	5503	200.193926923076	0
4	5503	210	1
4	5572	210.0544	0
4	5572	210.186788461538	1
4	5778	210.193926923076	0
4	5778	220	1
4	5847	220.0544	0
4	5847	220.186788461538	1
4	6053	220.193926923076	0
4	6053	230	1
4	6122	230.0544	0
4	6122	230.186788461538	1
4	6328	230.193926923076	0
4	6328	240	1
4	6397	240.0544	0
4	6397	240.186788461538	1
4	6603	240.193926923076	0
4	6603	250	1
4	6672	250.0544	0
4	6672	250.186788461538	1
4	6878	250.193926923076	0
4	6878	260	1
4	6947	260.0544	0
4	6947	260.186788461538	1
4	7153	260.193926923076	0
4	7153	270	1
4	7222	270.0544	0
4	7222	270.186788461538	1
4	7428	270.193926923076	0
4	7428	280	1
4	7497	280.0544	0
4	7497	280.186788461538	1
4	7703	280.193926923076	0
4	7703	290	1
4	7772	290.0544	0
4	7772	290.186788461538	1
4	7976	290.193926923076	0
5	0	0	0
5	66	0	0
5	66	10.164025	1
5	71	10.172394230769	0
5	71	10.17765	1
5	341	10.184788461538	0
5	341	20.164025	1
5	346	20.172394230769	0
5	346	20.17765	1
5	616	20.184788461538	0
5	616	30.164025	1
5	621	30.172394230769	0
5	621	30.17765	1
5	891	30.184788461538	0
5	891	40.164025	1
5	896	40.172394230769	0
5	896	40.17765	1
5	1166	40.184788461538	0
5	1166	50.164025	1
5	1171	50.172394230769	0
5	1171	50.17765	1
5	1441	50.184788461538	0
5	1441	60.164025	1
5	1446	60.172394230769	0
5	1446	60.17765	1
5	1716	60.184788461538	0
5	1716	70.164025	1
5	1721	70.172394230769	0
5	1721	70.17765	1
5	1991	70.184788461538	0
5	1991	80.164025	1
5	1996	80.172394230769	0
5	1996	80.17765	1
5	2266	80.184788461538	0
5	2266	90.164025	1
5	2271	90.172394230769	0
5	2271	90.17765	1
5	2541	90.184788461538	0
5	2541	100.164025	1
5	2546	100.172394230769	0
5	2546	100.17765	1
5	2816	100.184788461538	0
5	2816	110.164025	1
5	2821	110.172394230769	0
5	2821	110.17765	1
5	3091	110.184788461538	0
5	3091	120.164025	1
5	3096	120.172394230769	0
5	3096	120.17765	1
5	3366	120.184788461538	0
5	3366	130.164025	1
5	3371	130.172394230769	0
5	3371	130.17765	1
5	3641	130.184788461538	0
5	3641	140.164025	1
5	3646	140.172394230769	0
5	3646	140.17765	1
5	3916	140.184788461538	0
5	3916	150.164025	1
5	3921	150.172394230769	0
5	3921	150.17765	1
5	4191	150.184788461538	0
5	4191	160.164025	1
5	4196	160.172394230769	0
5	4196	160.17765	1
5	4466	160.184788461538	0
5	4466	170.164025	1
5	4471	170.172394230769	0
5	4471	170.17765	1
5	4741	170.184788461538	0
5	4741	180.164025	1
5	4746	180.172394230769	0
5	4746	180.17765	1
5	5016	180.184788461538	0
5	5016	190.164025	1
5	5021	190.172394230769	0
5	5021	190.17765	1
5	5291	190.184788461538	0
5	5291	200.164025	1
5	5296	200.172394230769	0
5	5296	200.17765	1
5	5566	200.184788461538	0
5	5566	210.164025	1
5	5571	210.172394230769	0
5	5571	210.17765	1
5	5841	210.184788461538	0
5	5841	220.164025	1
5	5846	220.172394230769	0
5	5846	220.17765	1
5	6116	220.184788461538	0
5	6116	230.164025	1
5	6121	230.172394230769	0
5	6121	230.17765	1
5	6391	230.184788461538	0
5	6391	240.164025	1
5	6396	240.172394230769	0
5	6396	240.17765	1
5	6666	240.184788461538	0
5	6666	250.164025	1
5	6671	250.172394230769	0
5	6671	250.17765	1
5	6941	250.184788461538	0
5	6941	260.164025	1
5	6946	260.172394230769	0
5	6946	260.17765	1
5	7216	260.184788461538	0
5	7216	270.164025	1
5	7221	270.172394230769	0
5	7221	270.17765	1
5	7491	270.184788461538	0
5	7491	280.164025	1
5	7496	280.172394230769	0
5	7496	280.17765	1
5	7766	280.184788461538	0
5	7766	290.164025	1
5	7771	290.172394230769	0
5	7771	290.17765	1
5	7976	290.184788461538	0
6	0	0	0
6	4	0	0
6	4	10	1
6	79	10.0544	0
6	79	10.214663461538	1
6	279	10.221801923076	0
6	279	20	1
6	354	20.0544	0
6	354	20.214663461538	1
6	554	20.221801923076	0
6	554	30	1
6	629	30.0544	0
6	629	30.214663461538	1
6	829	30.221801923076	0
6	829	40	1
6	904	40.0544	0
6	904	40.214663461538	1
6	1104	40.221801923076	0
6	1104	50	1
6	1179	50.0544	0
6	1179	50.214663461538	1
6	1379	50.221801923076	0
6	1379	60	1
6	1454	60.0544	0
6	1454	60.214663461538	1
6	1654	60.221801923076	0
6	1654	70	1
6	1729	70.0544	0
6	1729	70.214663461538	1
6	1929	70.221801923076	0
6	1929	80	1
6	2004	80.0544	0
6	2004	80.214663461538	1
6	2204	80.221801923076	0
6	2204	90	1
6	2279	90.0544	0
6	2279	90.214663461538	1
6	2479	90.221801923076	0
6	2479	100	1
6	2554	100.0544	0
6	2554	100.214663461538	1
6	2754	100.221801923076	0
6	2754	110	1
6	2829	110.0544	0
6	2829	110.214663461538	1
6	3029	110.221801923076	0
6	3029	120	1
6	3104	120.0544	0
6	3104	120.214663461538	1
6	3304	120.221801923076	0
6	3304	130	1
6	3379	130.0544	0
6	3379	130.214663461538	1
6	3579	130.221801923076	0
6	3579	140	1
6	3654	140.0544	0
6	3654	140.214663461538	1
6	3854	140.221801923076	0
6	3854	150	1
6	3929	150.0544	0
6	3929	150.214663461538	1
6	4129	150.221801923076	0
6	4129	160	1
6	4204	160.0544	0
6	4204	160.214663461538	1
6	4404	160.221801923076	0
6	4404	170	1
6	4479	170.0544	0
6	4479	170.214663461538	1
6	4679	170.221801923076	0
6	4679	180	1
6	4754	180.0544	0
6	4754	180.214663461538	1
6	4954	180.221801923076	0
6	4954	190	1
6	5029	190.0544	0
6	5029	190.214663461538	1
6	5229	190.221801923076	0
6	5229	200	1
6	5304	200.0544	0
6	5304	200.214663461538	1
6	5504	200.221801923076	0
6	5504	210	1
6	5579	210.0544	0
6	5579	210.214663461538	1
6	5779	210.221801923076	0
6	5779	220	1
6	5854	220.0544	0
6	5854	220.214663461538	1
6	6054	220.221801923076	0
6	6054	230	1
6	6129	230.0544	0
6	6129	230.214663461538	1
6	6329	230.221801923076	0
6	6329	240	1
6	6404	240.0544	0
6	6404	240.214663461538	1
6	6604	240.221801923076	0
6	6604	250	1
6	6679	250.0544	0
6	6679	250.214663461538	1
6	6879	250.221801923076	0
6	6879	260	1
6	6954	260.0544	0
6	6954	260.214663461538	1
6	7154	260.221801923076	0
6	7154	270	1
6	7229	270.0544	0
6	7229	270.214663461538	1
6	7429	270.221801923076	0
6	7429	280	1
6	7504	280.0544	0
6	7504	280.214663461538	1
6	7704	280.221801923076	0
6	7704	290	1
6	7779	290.0544	0
6	7779	290.214663461538	1
6	7976	290.221801923076	0
7	0	0	0
7	73	0	0
7	73	10.1919	1
7	78	10.200269230769	0
7	78	10.205525	1
7	348	10.212663461538	0
7	348	20.1919	1
7	353	20.200269230769	0
7	353	20.205525	1
7	623	20.212663461538	0
7	623	30.1919	1
7	628	30.200269230769	0
7	628	30.205525	1
7	898	30.212663461538	0
7	898	40.1919	1
7	903	40.200269230769	0
7	903	40.205525	1
7	1173	40.212663461538	0
7	1173	50.1919	1
7	1178	50.200269230769	0
7	1178	50.205525	1
7	1448	50.212663461538	0
7	1448	60.1919	1
7	1453	60.200269230769	0
7	1453	60.205525	1
7	1723	60.212663461538	0
7	1723	70.1919	1
7	1728	70.200269230769	0
7	1728	70.205525	1
7	1998	70.212663461538	0
7	1998	80.1919	1
7	2003	80.200269230769	0
7	2003	80.205525	1
7	2273	80.212663461538	0
7	2273	90.1919	1
7	2278	90.200269230769	0
7	2278	90.205525	1
7	2548	90.212663461538	0
7	2548	100.1919	1
7	2553	100.200269230769	0
7	2553	100.205525	1
7	2823	100.212663461538	0
7	2823	110.1919	1
7	2828	110.200269230769	0
7	2828	110.205525	1
7	3098	110.212663461538	0
7	3098	120.1919	1
7	3103	120.200269230769	0
7	3103	120.205525	1
7	3373	120.212663461538	0
7	3373	130.1919	1
7	3378	130.200269230769	0
7	3378	130.205525	1
7	3648	130.212663461538	0
7	3648	140.1919	1
7	3653	140.200269230769	0
7	3653	140.205525	1
7	3923	140.212663461538	0
7	3923	150.1919	1
7	3928	150.200269230769	0
7	3928	150.205525	1
7	4198	150.212663461538	0
7	4198	160.1919	1
7	4203	160.200269230769	0
7	4203	160.205525	1
7	4473	160.212663461538	0
7	4473	170.1919	1
7	4478	170.200269230769	0
7	4478	170.205525	1
7	4748	170.212663461538	0
7	4748	180.1919	1
7	4753	180.200269230769	0
7	4753	180.205525	1
7	5023	180.212663461538	0
7	5023	190.1919	1
7	5028	190.200269230769	0
7	5028	190.205525	1
7	5298	190.212663461538	0
7	5298	200.1919	1
7	5303	200.200269230769	0
7	5303	200.205525	1
7	5573	200.212663461538	0
7	5573	210.1919	1
7	5578	210.200269230769	0
7	5578	210.205525	1
7	5848	210.212663461538	0
7	5848	220.1919	1
7	5853	220.200269230769	0
7	5853	220.205525	1
7	6123	220.212663461538	0
7	6123	230.1919	1
7	6128	230.200269230769	0
7	6128	230.205525	1
7	6398	230.212663461538	0
7	6398	240.1919	1
7	6403	240.200269230769	0
7	6403	240.205525	1
7	6673	240.212663461538	0
7	6673	250.1919	1
7	6678	250.200269230769	0
7	6678	250.205525	1
7	6948	250.212663461538	0
7	6948	260.1919	1
7	6953	260.200269230769	0
7	6953	260.205525	1
7	7223	260.212663461538	0
7	7223	270.1919	1
7	7228	270.200269230769	0
7	7228	270.205525	1
7	7498	270.212663461538	0
7	7498	280.1919	1
7	7503	280.200269230769	0
7	7503	280.205525	1
7	7773	280.212663461538	0
7	7773	290.1919	1
7	7778	290.200269230769	0
7	7778	290.205525	1
7	7976	290.212663461538	0
8	0	0	0
8	5	0	0
8	5	10	1
8	86	10.0544	0
8	86	10.242538461538	1
8	280	10.249676923076	0
8	280	20	1
8	361	20.0544	0
8	361	20.242538461538	1
8	555	20.249676923076	0
8	555	30	1
8	636	30.0544	0