file 1051064 1776681583                                         
version 3
run LightTraffic_75-0-20260420-13:15:52-28948
attr configname LightTraffic_75
attr datetime 20260420-13:15:52
attr datetimef 20260420-131552
attr experiment LightTraffic_75
attr inifile omnetpp.ini
attr iterationvars ""
attr iterationvarsd ""
attr iterationvarsf ""
attr measurement ""
attr network DNP3NetworkTopology
attr processid 28948
attr repetition 0
attr replication #0
attr resultdir results
attr runnumber 0
attr seedset 0
config image-path ../../inet4.5/images
config description "Light traffic with 75 smart meters"
config *.numMeters 75
config *.distAuto.numMeters 75
config **.eventInterval 10s
config **.eventBytes 442
config network DNP3NetworkTopology
config sim-time-limit 350s
config output-scalar-file LightTraffic_75.sca
config output-vector-file LightTraffic_75.vec
config **.scalar-recording true
config **.vector-recording true
config **.result-recording-modes all
config *.distAuto.processingDelay 10ms
config **.totalPackets 500
config **.ackTimeout 2s
config **.stopGenerationTime 300s
config *.meter[*].meterId index

vector 0 DNP3NetworkTopology.meter[0].interface$o.channel busy:vector ETV
attr interpolationmode sample-hold
attr recordingmode vector
attr source channelBusy
vector 1 DNP3NetworkTopology.Concatenator.MeterInterface$o[0].channel busy:vector ETV
attr interpolationmode sample-hold
attr recordingmode vector
attr source channelBusy
vector 2 DNP3NetworkTopology.meter[1].interface$o.channel busy:vector ETV
attr interpolationmode sample-hold
attr recordingmode vector
attr source channelBusy
vector 3 DNP3NetworkTopology.Concatenator.MeterInterface$o[1].channel busy:vector ETV
attr interpolationmode sample-hold
attr recordingmode vector
attr source channelBusy
vector 4 DNP3NetworkTopology.meter[2].interface$o.channel busy:vector ETV
attr interpolationmode sample-hold
attr recordingmode vector
attr source channelBusy
vector 5 DNP3NetworkTopology.Concatenator.MeterInterface$o[2].channel busy:vector ETV
attr interpolationmode sample-hold
attr recordingmode vector
attr source channelBusy
vector 6 DNP3NetworkTopology.meter[3].interface$o.channel busy:vector ETV
attr interpolationmode sample-hold
attr recordingmode vector
attr source channelBusy
vector 7 DNP3NetworkTopology.Concatenator.MeterInterface$o[3].channel busy:vector ETV
attr interpolationmode sample-hold
attr recordingmode vector
attr source channelBusy
vector 8 DNP3NetworkTopology.meter[4].interface$o.channel busy:vector ETV
attr interpolationmode sample-hold
attr recordingmode vector
attr source channelBusy
vector 9 DNP3NetworkTopology.Concatenator.MeterInterface$o[4].channel busy:vector ETV
attr interpolationmode sample-hold
attr recordingmode vector
attr source channelBusy
vector 10 DNP3NetworkTopology.meter[5].interface$o.channel busy:vector ETV
attr interpolationmode sample-hold
attr recordingmode vector
attr source channelBusy
vector 11 DNP3NetworkTopology.Concatenator.MeterInterface$o[5].channel busy:vector ETV
attr interpolationmode sample-hold
attr recordingmode vector
attr source channelBusy
vector 12 DNP3NetworkTopology.meter[6].interface$o.channel busy:vector ETV
attr interpolationmode sample-hold
attr recordingmode vector
attr source channelBusy
vector 13 DNP3NetworkTopology.Concatenator.MeterInterface$o[6].channel busy:vector ETV
attr interpolationmode sample-hold
attr recordingmode vector
attr source channelBusy
vector 14 DNP3NetworkTopology.meter[7].interface$o.channel busy:vector ETV
attr interpolationmode sample-hold
attr recordingmode vector
attr source channelBusy
vector 15 DNP3NetworkTopology.Concatenator.MeterInterface$o[7].channel busy:vector ETV
attr interpolationmode sample-hold
attr recordingmode vector
attr source channelBusy
vector 16 DNP3NetworkTopology.meter[8].interface$o.channel busy:vector ETV
attr interpolationmode sample-hold
attr recordingmode vector
attr source channelBusy
vector 17 DNP3NetworkTopology.Concatenator.MeterInterface$o[8].channel busy:vector ETV
attr interpolationmode sample-hold
attr recordingmode vector
attr source channelBusy
vector 18 DNP3NetworkTopology.meter[9].interface$o.channel busy:vector ETV
attr interpolationmode sample-hold
attr recordingmode vector
attr source channelBusy
vector 19 DNP3NetworkTopology.Concatenator.MeterInterface$o[9].channel busy:vector ETV
attr interpolationmode sample-hold
attr recordingmode vector
attr source channelBusy
vector 20 DNP3NetworkTopology.meter[10].interface$o.channel busy:vector ETV
attr interpolationmode sample-hold
attr recordingmode vector
attr source channelBusy
vector 21 DNP3NetworkTopology.Concatenator.MeterInterface$o[10].channel busy:vector ETV
attr interpolationmode sample-hold
attr recordingmode vector
attr source channelBusy
vector 22 DNP3NetworkTopology.meter[11].interface$o.channel busy:vector ETV
attr interpolationmode sample-hold
attr recordingmode vector
attr source channelBusy
vector 23 DNP3NetworkTopology.Concatenator.MeterInterface$o[11].channel busy:vector ETV
attr interpolationmode sample-hold
attr recordingmode vector
attr source channelBusy
vector 24 DNP3NetworkTopology.meter[12].interface$o.channel busy:vector ETV
attr interpolationmode sample-hold
attr recordingmode vector
attr source channelBusy
vector 25 DNP3NetworkTopology.Concatenator.MeterInterface$o[12].channel busy:vector ETV
attr interpolationmode sample-hold
attr recordingmode vector
attr source channelBusy
vector 26 DNP3NetworkTopology.meter[13].interface$o.channel busy:vector ETV
attr interpolationmode sample-hold
attr recordingmode vector
attr source channelBusy
vector 27 DNP3NetworkTopology.Concatenator.MeterInterface$o[13].channel busy:vector ETV
attr interpolationmode sample-hold
attr recordingmode vector
attr source channelBusy
vector 28 DNP3NetworkTopology.meter[14].interface$o.channel busy:vector ETV
attr interpolationmode sample-hold
attr recordingmode vector
attr source channelBusy
vector 29 DNP3NetworkTopology.Concatenator.MeterInterface$o[14].channel busy:vector ETV
attr interpolationmode sample-hold
attr recordingmode vector
attr source channelBusy
vector 30 DNP3NetworkTopology.meter[15].interface$o.channel busy:vector ETV
attr interpolationmode sample-hold
attr recordingmode vector
attr source channelBusy
vector 31 DNP3NetworkTopology.Concatenator.MeterInterface$o[15].channel busy:vector ETV
attr interpolationmode sample-hold
attr recordingmode vector
attr source channelBusy
vector 32 DNP3NetworkTopology.meter[16].interface$o.channel busy:vector ETV
attr interpolationmode sample-hold
attr recordingmode vector
attr source channelBusy
vector 33 DNP3NetworkTopology.Concatenator.MeterInterface$o[16].channel busy:vector ETV
attr interpolationmode sample-hold
attr recordingmode vector
attr source channelBusy
vector 34 DNP3NetworkTopology.meter[17].interface$o.channel busy:vector ETV
attr interpolationmode sample-hold
attr recordingmode vector
attr source channelBusy
vector 35 DNP3NetworkTopology.Concatenator.MeterInterface$o[17].channel busy:vector ETV
attr interpolationmode sample-hold
attr recordingmode vector
attr source channelBusy
vector 36 DNP3NetworkTopology.meter[18].interface$o.channel busy:vector ETV
attr interpolationmode sample-hold
attr recordingmode vector
attr source channelBusy
vector 37 DNP3NetworkTopology.Concatenator.MeterInterface$o[18].channel busy:vector ETV
attr interpolationmode sample-hold
attr recordingmode vector
attr source channelBusy
vector 38 DNP3NetworkTopology.meter[19].interface$o.channel busy:vector ETV
attr interpolationmode sample-hold
attr recordingmode vector
attr source channelBusy
vector 39 DNP3NetworkTopology.Concatenator.MeterInterface$o[19].channel busy:vector ETV
attr interpolationmode sample-hold
attr recordingmode vector
attr source channelBusy
vector 40 DNP3NetworkTopology.meter[20].interface$o.channel busy:vector ETV
attr interpolationmode sample-hold
attr recordingmode vector
attr source channelBusy
vector 41 DNP3NetworkTopology.Concatenator.MeterInterface$o[20].channel busy:vector ETV
attr interpolationmode sample-hold
attr recordingmode vector
attr source channelBusy
vector 42 DNP3NetworkTopology.meter[21].interface$o.channel busy:vector ETV
attr interpolationmode sample-hold
attr recordingmode vector
attr source channelBusy
vector 43 DNP3NetworkTopology.Concatenator.MeterInterface$o[21].channel busy:vector ETV
attr interpolationmode sample-hold
attr recordingmode vector
attr source channelBusy
vector 44 DNP3NetworkTopology.meter[22].interface$o.channel busy:vector ETV
attr interpolationmode sample-hold
attr recordingmode vector
attr source channelBusy
vector 45 DNP3NetworkTopology.Concatenator.MeterInterface$o[22].channel busy:vector ETV
attr interpolationmode sample-hold
attr recordingmode vector
attr source channelBusy
vector 46 DNP3NetworkTopology.meter[23].interface$o.channel busy:vector ETV
attr interpolationmode sample-hold
attr recordingmode vector
attr source channelBusy
vector 47 DNP3NetworkTopology.Concatenator.MeterInterface$o[23].channel busy:vector ETV
attr interpolationmode sample-hold
attr recordingmode vector
attr source channelBusy
vector 48 DNP3NetworkTopology.meter[24].interface$o.channel busy:vector ETV
attr interpolationmode sample-hold
attr recordingmode vector
attr source channelBusy
vector 49 DNP3NetworkTopology.Concatenator.MeterInterface$o[24].channel busy:vector ETV
attr interpolationmode sample-hold
attr recordingmode vector
attr source channelBusy
vector 50 DNP3NetworkTopology.meter[25].interface$o.channel busy:vector ETV
attr interpolationmode sample-hold
attr recordingmode vector
attr source channelBusy
vector 51 DNP3NetworkTopology.Concatenator.MeterInterface$o[25].channel busy:vector ETV
attr interpolationmode sample-hold
attr recordingmode vector
attr source channelBusy
vector 52 DNP3NetworkTopology.meter[26].interface$o.channel busy:vector ETV
attr interpolationmode sample-hold
attr recordingmode vector
attr source channelBusy
vector 53 DNP3NetworkTopology.Concatenator.MeterInterface$o[26].channel busy:vector ETV
attr interpolationmode sample-hold
attr recordingmode vector
attr source channelBusy
vector 54 DNP3NetworkTopology.meter[27].interface$o.channel busy:vector ETV
attr interpolationmode sample-hold
attr recordingmode vector
attr source channelBusy
vector 55 DNP3NetworkTopology.Concatenator.MeterInterface$o[27].channel busy:vector ETV
attr interpolationmode sample-hold
attr recordingmode vector
attr source channelBusy
vector 56 DNP3NetworkTopology.meter[28].interface$o.channel busy:vector ETV
attr interpolationmode sample-hold
attr recordingmode vector
attr source channelBusy
vector 57 DNP3NetworkTopology.Concatenator.MeterInterface$o[28].channel busy:vector ETV
attr interpolationmode sample-hold
attr recordingmode vector
attr source channelBusy
vector 58 DNP3NetworkTopology.meter[29].interface$o.channel busy:vector ETV
attr interpolationmode sample-hold
attr recordingmode vector
attr source channelBusy
vector 59 DNP3NetworkTopology.Concatenator.MeterInterface$o[29].channel busy:vector ETV
attr interpolationmode sample-hold
attr recordingmode vector
attr source channelBusy
vector 60 DNP3NetworkTopology.meter[30].interface$o.channel busy:vector ETV
attr interpolationmode sample-hold
attr recordingmode vector
attr source channelBusy
vector 61 DNP3NetworkTopology.Concatenator.MeterInterface$o[30].channel busy:vector ETV
attr interpolationmode sample-hold
attr recordingmode vector
attr source channelBusy
vector 62 DNP3NetworkTopology.meter[31].interface$o.channel busy:vector ETV
attr interpolationmode sample-hold
attr recordingmode vector
attr source channelBusy
vector 63 DNP3NetworkTopology.Concatenator.MeterInterface$o[31].channel busy:vector ETV
attr interpolationmode sample-hold
attr recordingmode vector
attr source channelBusy
vector 64 DNP3NetworkTopology.meter[32].interface$o.channel busy:vector ETV
attr interpolationmode sample-hold
attr recordingmode vector
attr source channelBusy
vector 65 DNP3NetworkTopology.Concatenator.MeterInterface$o[32].channel busy:vector ETV
attr interpolationmode sample-hold
attr recordingmode vector
attr source channelBusy
vector 66 DNP3NetworkTopology.meter[33].interface$o.channel busy:vector ETV
attr interpolationmode sample-hold
attr recordingmode vector
attr source channelBusy
vector 67 DNP3NetworkTopology.Concatenator.MeterInterface$o[33].channel busy:vector ETV
attr interpolationmode sample-hold
attr recordingmode vector
attr source channelBusy
vector 68 DNP3NetworkTopology.meter[34].interface$o.channel busy:vector ETV
attr interpolationmode sample-hold
attr recordingmode vector
attr source channelBusy
vector 69 DNP3NetworkTopology.Concatenator.MeterInterface$o[34].channel busy:vector ETV
attr interpolationmode sample-hold
attr recordingmode vector
attr source channelBusy
vector 70 DNP3NetworkTopology.meter[35].interface$o.channel busy:vector ETV
attr interpolationmode sample-hold
attr recordingmode vector
attr source channelBusy
vector 71 DNP3NetworkTopology.Concatenator.MeterInterface$o[35].channel busy:vector ETV
attr interpolationmode sample-hold
attr recordingmode vector
attr source channelBusy
vector 72 DNP3NetworkTopology.meter[36].interface$o.channel busy:vector ETV
attr interpolationmode sample-hold
attr recordingmode vector
attr source channelBusy
vector 73 DNP3NetworkTopology.Concatenator.MeterInterface$o[36].channel busy:vector ETV
attr interpolationmode sample-hold
attr recordingmode vector
attr source channelBusy
vector 74 DNP3NetworkTopology.meter[37].interface$o.channel busy:vector ETV
attr interpolationmode sample-hold
attr recordingmode vector
attr source channelBusy
vector 75 DNP3NetworkTopology.Concatenator.MeterInterface$o[37].channel busy:vector ETV
attr interpolationmode sample-hold
attr recordingmode vector
attr source channelBusy
vector 76 DNP3NetworkTopology.meter[38].interface$o.channel busy:vector ETV
attr interpolationmode sample-hold
attr recordingmode vector
attr source channelBusy
vector 77 DNP3NetworkTopology.Concatenator.MeterInterface$o[38].channel busy:vector ETV
attr interpolationmode sample-hold
attr recordingmode vector
attr source channelBusy
vector 78 DNP3NetworkTopology.meter[39].interface$o.channel busy:vector ETV
attr interpolationmode sample-hold
attr recordingmode vector
attr source channelBusy
vector 79 DNP3NetworkTopology.Concatenator.MeterInterface$o[39].channel busy:vector ETV
attr interpolationmode sample-hold
attr recordingmode vector
attr source channelBusy
vector 80 DNP3NetworkTopology.meter[40].interface$o.channel busy:vector ETV
attr interpolationmode sample-hold
attr recordingmode vector
attr source channelBusy
vector 81 DNP3NetworkTopology.Concatenator.MeterInterface$o[40].channel busy:vector ETV
attr interpolationmode sample-hold
attr recordingmode vector
attr source channelBusy
vector 82 DNP3NetworkTopology.meter[41].interface$o.channel busy:vector ETV
attr interpolationmode sample-hold
attr recordingmode vector
attr source channelBusy
vector 83 DNP3NetworkTopology.Concatenator.MeterInterface$o[41].channel busy:vector ETV
attr interpolationmode sample-hold
attr recordingmode vector
attr source channelBusy
vector 84 DNP3NetworkTopology.meter[42].interface$o.channel busy:vector ETV
attr interpolationmode sample-hold
attr recordingmode vector
attr source channelBusy
vector 85 DNP3NetworkTopology.Concatenator.MeterInterface$o[42].channel busy:vector ETV
attr interpolationmode sample-hold
attr recordingmode vector
attr source channelBusy
vector 86 DNP3NetworkTopology.meter[43].interface$o.channel busy:vector ETV
attr interpolationmode sample-hold
attr recordingmode vector
attr source channelBusy
vector 87 DNP3NetworkTopology.Concatenator.MeterInterface$o[43].channel busy:vector ETV
attr interpolationmode sample-hold
attr recordingmode vector
attr source channelBusy
vector 88 DNP3NetworkTopology.meter[44].interface$o.channel busy:vector ETV
attr interpolationmode sample-hold
attr recordingmode vector
attr source channelBusy
vector 89 DNP3NetworkTopology.Concatenator.MeterInterface$o[44].channel busy:vector ETV
attr interpolationmode sample-hold
attr recordingmode vector
attr source channelBusy
vector 90 DNP3NetworkTopology.meter[45].interface$o.channel busy:vector ETV
attr interpolationmode sample-hold
attr recordingmode vector
attr source channelBusy
vector 91 DNP3NetworkTopology.Concatenator.MeterInterface$o[45].channel busy:vector ETV
attr interpolationmode sample-hold
attr recordingmode vector
attr source channelBusy
vector 92 DNP3NetworkTopology.meter[46].interface$o.channel busy:vector ETV
attr interpolationmode sample-hold
attr recordingmode vector
attr source channelBusy
vector 93 DNP3NetworkTopology.Concatenator.MeterInterface$o[46].channel busy:vector ETV
attr interpolationmode sample-hold
attr recordingmode vector
attr source channelBusy
vector 94 DNP3NetworkTopology.meter[47].interface$o.channel busy:vector ETV
attr interpolationmode sample-hold
attr recordingmode vector
attr source channelBusy
vector 95 DNP3NetworkTopology.Concatenator.MeterInterface$o[47].channel busy:vector ETV
attr interpolationmode sample-hold
attr recordingmode vector
attr source channelBusy
vector 96 DNP3NetworkTopology.meter[48].interface$o.channel busy:vector ETV
attr interpolationmode sample-hold
attr recordingmode vector
attr source channelBusy
vector 97 DNP3NetworkTopology.Concatenator.MeterInterface$o[48].channel busy:vector ETV
attr interpolationmode sample-hold
attr recordingmode vector
attr source channelBusy
vector 98 DNP3NetworkTopology.meter[49].interface$o.channel busy:vector ETV
attr interpolationmode sample-hold
attr recordingmode vector
attr source channelBusy
vector 99 DNP3NetworkTopology.Concatenator.MeterInterface$o[49].channel busy:vector ETV
attr interpolationmode sample-hold
attr recordingmode vector
attr source channelBusy
vector 100 DNP3NetworkTopology.meter[50].interface$o.channel busy:vector ETV
attr interpolationmode sample-hold
attr recordingmode vector
attr source channelBusy
vector 101 DNP3NetworkTopology.Concatenator.MeterInterface$o[50].channel busy:vector ETV
attr interpolationmode sample-hold
attr recordingmode vector
attr source channelBusy
vector 102 DNP3NetworkTopology.meter[51].interface$o.channel busy:vector ETV
attr interpolationmode sample-hold
attr recordingmode vector
attr source channelBusy
vector 103 DNP3NetworkTopology.Concatenator.MeterInterface$o[51].channel busy:vector ETV
attr interpolationmode sample-hold
attr recordingmode vector
attr source channelBusy
vector 104 DNP3NetworkTopology.meter[52].interface$o.channel busy:vector ETV
attr interpolationmode sample-hold
attr recordingmode vector
attr source channelBusy
vector 105 DNP3NetworkTopology.Concatenator.MeterInterface$o[52].channel busy:vector ETV
attr interpolationmode sample-hold
attr recordingmode vector
attr source channelBusy
vector 106 DNP3NetworkTopology.meter[53].interface$o.channel busy:vector ETV
attr interpolationmode sample-hold
attr recordingmode vector
attr source channelBusy
vector 107 DNP3NetworkTopology.Concatenator.MeterInterface$o[53].channel busy:vector ETV
attr interpolationmode sample-hold
attr recordingmode vector
attr source channelBusy
vector 108 DNP3NetworkTopology.meter[54].interface$o.channel busy:vector ETV
attr interpolationmode sample-hold
attr recordingmode vector
attr source channelBusy
vector 109 DNP3NetworkTopology.Concatenator.MeterInterface$o[54].channel busy:vector ETV
attr interpolationmode sample-hold
attr recordingmode vector
attr source channelBusy
vector 110 DNP3NetworkTopology.meter[55].interface$o.channel busy:vector ETV
attr interpolationmode sample-hold
attr recordingmode vector
attr source channelBusy
vector 111 DNP3NetworkTopology.Concatenator.MeterInterface$o[55].channel busy:vector ETV
attr interpolationmode sample-hold
attr recordingmode vector
attr source channelBusy
vector 112 DNP3NetworkTopology.meter[56].interface$o.channel busy:vector ETV
attr interpolationmode sample-hold
attr recordingmode vector
attr source channelBusy
vector 113 DNP3NetworkTopology.Concatenator.MeterInterface$o[56].channel busy:vector ETV
attr interpolationmode sample-hold
attr recordingmode vector
attr source channelBusy
vector 114 DNP3NetworkTopology.meter[57].interface$o.channel busy:vector ETV
attr interpolationmode sample-hold
attr recordingmode vector
attr source channelBusy
vector 115 DNP3NetworkTopology.Concatenator.MeterInterface$o[57].channel busy:vector ETV
attr interpolationmode sample-hold
attr recordingmode vector
attr source channelBusy
vector 116 DNP3NetworkTopology.meter[58].interface$o.channel busy:vector ETV
attr interpolationmode sample-hold
attr recordingmode vector
attr source channelBusy
vector 117 DNP3NetworkTopology.Concatenator.MeterInterface$o[58].channel busy:vector ETV
attr interpolationmode sample-hold
attr recordingmode vector
attr source channelBusy
vector 118 DNP3NetworkTopology.meter[59].interface$o.channel busy:vector ETV
attr interpolationmode sample-hold
attr recordingmode vector
attr source channelBusy
vector 119 DNP3NetworkTopology.Concatenator.MeterInterface$o[59].channel busy:vector ETV
attr interpolationmode sample-hold
attr recordingmode vector
attr source channelBusy
vector 120 DNP3NetworkTopology.meter[60].interface$o.channel busy:vector ETV
attr interpolationmode sample-hold
attr recordingmode vector
attr source channelBusy
vector 121 DNP3NetworkTopology.Concatenator.MeterInterface$o[60].channel busy:vector ETV
attr interpolationmode sample-hold
attr recordingmode vector
attr source channelBusy
vector 122 DNP3NetworkTopology.meter[61].interface$o.channel busy:vector ETV
attr interpolationmode sample-hold
attr recordingmode vector
attr source channelBusy
vector 123 DNP3NetworkTopology.Concatenator.MeterInterface$o[61].channel busy:vector ETV
attr interpolationmode sample-hold
attr recordingmode vector
attr source channelBusy
vector 124 DNP3NetworkTopology.meter[62].interface$o.channel busy:vector ETV
attr interpolationmode sample-hold
attr recordingmode vector
attr source channelBusy
vector 125 DNP3NetworkTopology.Concatenator.MeterInterface$o[62].channel busy:vector ETV
attr interpolationmode sample-hold
attr recordingmode vector
attr source channelBusy
vector 126 DNP3NetworkTopology.meter[63].interface$o.channel busy:vector ETV
attr interpolationmode sample-hold
attr recordingmode vector
attr source channelBusy
vector 127 DNP3NetworkTopology.Concatenator.MeterInterface$o[63].channel busy:vector ETV
attr interpolationmode sample-hold
attr recordingmode vector
attr source channelBusy
vector 128 DNP3NetworkTopology.meter[64].interface$o.channel busy:vector ETV
attr interpolationmode sample-hold
attr recordingmode vector
attr source channelBusy
vector 129 DNP3NetworkTopology.Concatenator.MeterInterface$o[64].channel busy:vector ETV
attr interpolationmode sample-hold
attr recordingmode vector
attr source channelBusy
vector 130 DNP3NetworkTopology.meter[65].interface$o.channel busy:vector ETV
attr interpolationmode sample-hold
attr recordingmode vector
attr source channelBusy
vector 131 DNP3NetworkTopology.Concatenator.MeterInterface$o[65].channel busy:vector ETV
attr interpolationmode sample-hold
attr recordingmode vector
attr source channelBusy
vector 132 DNP3NetworkTopology.meter[66].interface$o.channel busy:vector ETV
attr interpolationmode sample-hold
attr recordingmode vector
attr source channelBusy
vector 133 DNP3NetworkTopology.Concatenator.MeterInterface$o[66].channel busy:vector ETV
attr interpolationmode sample-hold
attr recordingmode vector
attr source channelBusy
vector 134 DNP3NetworkTopology.meter[67].interface$o.channel busy:vector ETV
attr interpolationmode sample-hold
attr recordingmode vector
attr source channelBusy
vector 135 DNP3NetworkTopology.Concatenator.MeterInterface$o[67].channel busy:vector ETV
attr interpolationmode sample-hold
attr recordingmode vector
attr source channelBusy
vector 136 DNP3NetworkTopology.meter[68].interface$o.channel busy:vector ETV
attr interpolationmode sample-hold
attr recordingmode vector
attr source channelBusy
vector 137 DNP3NetworkTopology.Concatenator.MeterInterface$o[68].channel busy:vector ETV
attr interpolationmode sample-hold
attr recordingmode vector
attr source channelBusy
vector 138 DNP3NetworkTopology.meter[69].interface$o.channel busy:vector ETV
attr interpolationmode sample-hold
attr recordingmode vector
attr source channelBusy
vector 139 DNP3NetworkTopology.Concatenator.MeterInterface$o[69].channel busy:vector ETV
attr interpolationmode sample-hold
attr recordingmode vector
attr source channelBusy
vector 140 DNP3NetworkTopology.meter[70].interface$o.channel busy:vector ETV
attr interpolationmode sample-hold
attr recordingmode vector
attr source channelBusy
vector 141 DNP3NetworkTopology.Concatenator.MeterInterface$o[70].channel busy:vector ETV
attr interpolationmode sample-hold
attr recordingmode vector
attr source channelBusy
vector 142 DNP3NetworkTopology.meter[71].interface$o.channel busy:vector ETV
attr interpolationmode sample-hold
attr recordingmode vector
attr source channelBusy
vector 143 DNP3NetworkTopology.Concatenator.MeterInterface$o[71].channel busy:vector ETV
attr interpolationmode sample-hold
attr recordingmode vector
attr source channelBusy
vector 144 DNP3NetworkTopology.meter[72].interface$o.channel busy:vector ETV
attr interpolationmode sample-hold
attr recordingmode vector
attr source channelBusy
vector 145 DNP3NetworkTopology.Concatenator.MeterInterface$o[72].channel busy:vector ETV
attr interpolationmode sample-hold
attr recordingmode vector
attr source channelBusy
vector 146 DNP3NetworkTopology.meter[73].interface$o.channel busy:vector ETV
attr interpolationmode sample-hold
attr recordingmode vector
attr source channelBusy
vector 147 DNP3NetworkTopology.Concatenator.MeterInterface$o[73].channel busy:vector ETV
attr interpolationmode sample-hold
attr recordingmode vector
attr source channelBusy
vector 148 DNP3NetworkTopology.meter[74].interface$o.channel busy:vector ETV
attr interpolationmode sample-hold
attr recordingmode vector
attr source channelBusy
vector 149 DNP3NetworkTopology.Concatenator.MeterInterface$o[74].channel busy:vector ETV
attr interpolationmode sample-hold
attr recordingmode vector
attr source channelBusy
vector 150 DNP3NetworkTopology.Concatenator.DAInterface$o.channel busy:vector ETV
attr interpolationmode sample-hold
attr recordingmode vector
attr source channelBusy
vector 151 DNP3NetworkTopology.distAuto.interface$o.channel busy:vector ETV
attr interpolationmode sample-hold
attr recordingmode vector
attr source channelBusy
vector 152 DNP3NetworkTopology.Concatenator queueLength:vector ETV
attr recordingmode vector
attr source queueLength
attr title "Queue Length"
vector 153 DNP3NetworkTopology.distAuto packetDelay:vector ETV
attr recordingmode vector
attr source packetDelay
attr title "Packet Delay"
0	27389 2567 0 25318 0 290.138176923076 118 0 1 58 58
1	29956 2776 0 25318 0 290.129038461538 118 0 1 58 58
2	32732 2567 0 25318 0 290.166051923076 118 0 1 58 58
3	35299 2805 0 25318 0 290.156913461538 118 0 1 58 58
4	38104 2567 0 25318 0 290.193926923076 118 0 1 58 58
5	40671 2805 0 25318 0 290.184788461538 118 0 1 58 58
6	43476 2567 0 25318 0 290.221801923076 118 0 1 58 58
7	46043 2776 0 25318 0 290.212663461538 118 0 1 58 58
8	48819 2567 0 25318 0 290.249676923076 118 0 1 58 58
9	51386 2776 0 25318 0 290.240538461538 118 0 1 58 58
10	54162 2685 0 25318 0 290.277551923076 118 0 1 58 58
11	56847 2923 0 25318 0 290.268413461538 118 0 1 58 58
12	59770 2685 0 25318 0 290.305426923076 118 0 1 58 58
13	62455 2923 0 25318 0 290.296288461538 118 0 1 58 58
14	65378 2685 0 25318 0 290.333301923076 118 0 1 58 58
15	68063 2894 0 25318 0 290.324163461538 118 0 1 58 58
16	70957 2685 0 25318 0 290.361176923076 118 0 1 58 58
17	73642 2894 0 25318 0 290.352038461538 118 0 1 58 58
18	76536 2687 0 25318 0 290.389051923076 118 0 1 58 58
19	79223 2923 0 25318 0 290.379913461538 118 0 1 58 58
20	82146 2687 0 25318 0 290.416926923076 118 0 1 58 58
21	84833 2923 0 25318 0 290.407788461538 118 0 1 58 58
22	87756 2687 0 25318 0 290.444801923076 118 0 1 58 58
23	90443 2894 0 25318 0 290.435663461538 118 0 1 58 58
24	93337 2687 0 25318 0 290.472676923076 118 0 1 58 58
25	96024 2894 0 25318 0 290.463538461538 118 0 1 58 58
26	98918 2687 0 25318 0 290.500551923076 118 0 1 58 58
27	101605 2923 0 25318 0 290.491413461538 118 0 1 58 58
28	104528 2687 0 25318 0 290.528426923076 118 0 1 58 58
29	107215 2923 0 25318 0 290.519288461538 118 0 1 58 58
30	110138 2687 0 25318 0 290.556301923076 118 0 1 58 58
31	112825 2894 0 25318 0 290.547163461538 118 0 1 58 58
32	115719 2687 0 25318 0 290.584176923076 118 0 1 58 58
33	118406 2894 0 25318 0 290.575038461538 118 0 1 58 58
34	121300 2687 0 25318 0 290.612051923076 118 0 1 58 58
35	123987 2923 0 25318 0 290.602913461538 118 0 1 58 58
36	126910 2687 0 25318 0 290.639926923076 118 0 1 58 58
37	129597 2923 0 25318 0 290.630788461538 118 0 1 58 58
38	132520 2687 0 25318 0 290.667801923076 118 0 1 58 58
39	135207 2894 0 25318 0 290.658663461538 118 0 1 58 58
40	138101 2687 0 25318 0 290.695676923076 118 0 1 58 58
41	140788 2894 0 25318 0 290.686538461538 118 0 1 58 58
42	143682 2687 0 25318 0 290.723551923076 118 0 1 58 58
43	146369 2923 0 25318 0 290.714413461538 118 0 1 58 58
44	149292 2687 0 25318 0 290.751426923076 118 0 1 58 58
45	151979 2923 0 25318 0 290.742288461538 118 0 1 58 58
46	154902 2687 0 25318 0 290.779301923076 118 0 1 58 58
47	157589 2894 0 25318 0 290.770163461538 118 0 1 58 58
48	160483 2687 0 25318 0 290.807176923076 118 0 1 58 58
49	163170 2894 0 25318 0 290.798038461538 118 0 1 58 58
50	166064 2687 0 25318 0 290.835051923076 118 0 1 58 58
51	168751 2923 0 25318 0 290.825913461538 118 0 1 58 58
52	171674 2687 0 25318 0 290.862926923076 118 0 1 58 58
53	174361 2923 0 25318 0 290.853788461538 118 0 1 58 58
54	177284 2687 0 25318 0 290.890801923076 118 0 1 58 58
55	179971 2894 0 25318 0 290.881663461538 118 0 1 58 58
56	182865 2687 0 25318 0 290.918676923076 118 0 1 58 58