version 3
run MediumTraffic_50-0-20260420-13:47:11-31700
attr configname MediumTraffic_50
attr datetime 20260420-13:47:11
attr datetimef 20260420-134711
attr experiment MediumTraffic_50
attr inifile omnetpp.ini
attr iterationvars ""
attr iterationvarsd ""
attr iterationvarsf ""
attr measurement ""
attr network DNP3NetworkTopology
attr processid 31700
attr repetition 0
attr replication #0
attr resultdir results
attr runnumber 0
attr seedset 0
config image-path ../../samples/inet4.5/images
config description "Medium traffic with 50 smart meters"
config *.numMeters 50
config *.distAuto.numMeters 50
config **.eventInterval 5s
config **.eventBytes 442
config network DNP3NetworkTopology
config sim-time-limit 350s
config output-scalar-file MediumTraffic_50.sca
config output-vector-file MediumTraffic_50.vec
config **.scalar-recording true
config **.vector-recording true
config **.result-recording-modes all
config *.distAuto.processingDelay 10ms
config **.totalPackets 500
config **.ackTimeout 2s
config **.stopGenerationTime 300s
config *.meter[*].meterId index

vector 0 DNP3NetworkTopology.meter[0].interface$o.channel busy:vector ETV
attr interpolationmode sample-hold
attr recordingmode vector
attr source channelBusy
vector 1 DNP3NetworkTopology.Concatenator.MeterInterface$o[0].channel busy:vector ETV
attr interpolationmode sample-hold
attr recordingmode vector
attr source channelBusy
vector 2 DNP3NetworkTopology.meter[1].interface$o.channel busy:vector ETV
attr interpolationmode sample-hold
attr recordingmode vector
attr source channelBusy
vector 3 DNP3NetworkTopology.Concatenator.MeterInterface$o[1].channel busy:vector ETV
attr interpolationmode sample-hold
attr recordingmode vector
attr source channelBusy
vector 4 DNP3NetworkTopology.meter[2].interface$o.channel busy:vector ETV
attr interpolationmode sample-hold
attr recordingmode vector
attr source channelBusy
vector 5 DNP3NetworkTopology.Concatenator.MeterInterface$o[2].channel busy:vector ETV
attr interpolationmode sample-hold
attr recordingmode vector
attr source channelBusy
vector 6 DNP3NetworkTopology.meter[3].interface$o.channel busy:vector ETV
attr interpolationmode sample-hold
attr recordingmode vector
attr source channelBusy
vector 7 DNP3NetworkTopology.Concatenator.MeterInterface$o[3].channel busy:vector ETV
attr interpolationmode sample-hold
attr recordingmode vector
attr source channelBusy
vector 8 DNP3NetworkTopology.meter[4].interface$o.channel busy:vector ETV
attr interpolationmode sample-hold
attr recordingmode vector
attr source channelBusy
vector 9 DNP3NetworkTopology.Concatenator.MeterInterface$o[4].channel busy:vector ETV
attr interpolationmode sample-hold
attr recordingmode vector
attr source channelBusy
vector 10 DNP3NetworkTopology.meter[5].interface$o.channel busy:vector ETV
attr interpolationmode sample-hold
attr recordingmode vector
attr source channelBusy
vector 11 DNP3NetworkTopology.Concatenator.MeterInterface$o[5].channel busy:vector ETV
attr interpolationmode sample-hold
attr recordingmode vector
attr source channelBusy
vector 12 DNP3NetworkTopology.meter[6].interface$o.channel busy:vector ETV
attr interpolationmode sample-hold
attr recordingmode vector
attr source channelBusy
vector 13 DNP3NetworkTopology.Concatenator.MeterInterface$o[6].channel busy:vector ETV
attr interpolationmode sample-hold
attr recordingmode vector
attr source channelBusy
vector 14 DNP3NetworkTopology.meter[7].interface$o.channel busy:vector ETV
attr interpolationmode sample-hold
attr recordingmode vector
attr source channelBusy
vector 15 DNP3NetworkTopology.Concatenator.MeterInterface$o[7].channel busy:vector ETV
attr interpolationmode sample-hold
attr recordingmode vector
attr source channelBusy
vector 16 DNP3NetworkTopology.meter[8].interface$o.channel busy:vector ETV
attr interpolationmode sample-hold
attr recordingmode vector
attr source channelBusy
vector 17 DNP3NetworkTopology.Concatenator.MeterInterface$o[8].channel busy:vector ETV
attr interpolationmode sample-hold
attr recordingmode vector
attr source channelBusy
vector 18 DNP3NetworkTopology.meter[9].interface$o.channel busy:vector ETV
attr interpolationmode sample-hold
attr recordingmode vector
attr source channelBusy
vector 19 DNP3NetworkTopology.Concatenator.MeterInterface$o[9].channel busy:vector ETV
attr interpolationmode sample-hold
attr recordingmode vector
attr source channelBusy
vector 20 DNP3NetworkTopology.meter[10].interface$o.channel busy:vector ETV
attr interpolationmode sample-hold
attr recordingmode vector
attr source channelBusy
vector 21 DNP3NetworkTopology.Concatenator.MeterInterface$o[10].channel busy:vector ETV
attr interpolationmode sample-hold
attr recordingmode vector
attr source channelBusy
vector 22 DNP3NetworkTopology.meter[11].interface$o.channel busy:vector ETV
attr interpolationmode sample-hold
attr recordingmode vector
attr source channelBusy
vector 23 DNP3NetworkTopology.Concatenator.MeterInterface$o[11].channel busy:vector ETV
attr interpolationmode sample-hold
attr recordingmode vector
attr source channelBusy
vector 24 DNP3NetworkTopology.meter[12].interface$o.channel busy:vector ETV
attr interpolationmode sample-hold
attr recordingmode vector
attr source channelBusy
vector 25 DNP3NetworkTopology.Concatenator.MeterInterface$o[12].channel busy:vector ETV
attr interpolationmode sample-hold
attr recordingmode vector
attr source channelBusy
vector 26 DNP3NetworkTopology.meter[13].interface$o.channel busy:vector ETV
attr interpolationmode sample-hold
attr recordingmode vector
attr source channelBusy
vector 27 DNP3NetworkTopology.Concatenator.MeterInterface$o[13].channel busy:vector ETV
attr interpolationmode sample-hold
attr recordingmode vector
attr source channelBusy
vector 28 DNP3NetworkTopology.meter[14].interface$o.channel busy:vector ETV
attr interpolationmode sample-hold
attr recordingmode vector
attr source channelBusy
vector 29 DNP3NetworkTopology.Concatenator.MeterInterface$o[14].channel busy:vector ETV
attr interpolationmode sample-hold
attr recordingmode vector
attr source channelBusy
vector 30 DNP3NetworkTopology.meter[15].interface$o.channel busy:vector ETV
attr interpolationmode sample-hold
attr recordingmode vector
attr source channelBusy
vector 31 DNP3NetworkTopology.Concatenator.MeterInterface$o[15].channel busy:vector ETV
attr interpolationmode sample-hold
attr recordingmode vector
attr source channelBusy
vector 32 DNP3NetworkTopology.meter[16].interface$o.channel busy:vector ETV
attr interpolationmode sample-hold
attr recordingmode vector
attr source channelBusy
vector 33 DNP3NetworkTopology.Concatenator.MeterInterface$o[16].channel busy:vector ETV
attr interpolationmode sample-hold
attr recordingmode vector
attr source channelBusy
vector 34 DNP3NetworkTopology.meter[17].interface$o.channel busy:vector ETV
attr interpolationmode sample-hold
attr recordingmode vector
attr source channelBusy
vector 35 DNP3NetworkTopology.Concatenator.MeterInterface$o[17].channel busy:vector ETV
attr interpolationmode sample-hold
attr recordingmode vector
attr source channelBusy
vector 36 DNP3NetworkTopology.meter[18].interface$o.channel busy:vector ETV
attr interpolationmode sample-hold
attr recordingmode vector
attr source channelBusy
vector 37 DNP3NetworkTopology.Concatenator.MeterInterface$o[18].channel busy:vector ETV
attr interpolationmode sample-hold
attr recordingmode vector
attr source channelBusy
vector 38 DNP3NetworkTopology.meter[19].interface$o.channel busy:vector ETV
attr interpolationmode sample-hold
attr recordingmode vector
attr source channelBusy
vector 39 DNP3NetworkTopology.Concatenator.MeterInterface$o[19].channel busy:vector ETV
attr interpolationmode sample-hold
attr recordingmode vector
attr source channelBusy
vector 40 DNP3NetworkTopology.meter[20].interface$o.channel busy:vector ETV
attr interpolationmode sample-hold
attr recordingmode vector
attr source channelBusy
vector 41 DNP3NetworkTopology.Concatenator.MeterInterface$o[20].channel busy:vector ETV
attr interpolationmode sample-hold
attr recordingmode vector
attr source channelBusy
vector 42 DNP3NetworkTopology.meter[21].interface$o.channel busy:vector ETV
attr interpolationmode sample-hold
attr recordingmode vector
attr source channelBusy
vector 43 DNP3NetworkTopology.Concatenator.MeterInterface$o[21].channel busy:vector ETV
attr interpolationmode sample-hold
attr recordingmode vector
attr source channelBusy
vector 44 DNP3NetworkTopology.meter[22].interface$o.channel busy:vector ETV
attr interpolationmode sample-hold
attr recordingmode vector
attr source channelBusy
vector 45 DNP3NetworkTopology.Concatenator.MeterInterface$o[22].channel busy:vector ETV
attr interpolationmode sample-hold
attr recordingmode vector
attr source channelBusy
vector 46 DNP3NetworkTopology.meter[23].interface$o.channel busy:vector ETV
attr interpolationmode sample-hold
attr recordingmode vector
attr source channelBusy
vector 47 DNP3NetworkTopology.Concatenator.MeterInterface$o[23].channel busy:vector ETV
attr interpolationmode sample-hold
attr recordingmode vector
attr source channelBusy
vector 48 DNP3NetworkTopology.meter[24].interface$o.channel busy:vector ETV
attr interpolationmode sample-hold
attr recordingmode vector
attr source channelBusy
vector 49 DNP3NetworkTopology.Concatenator.MeterInterface$o[24].channel busy:vector ETV
attr interpolationmode sample-hold
attr recordingmode vector
attr source channelBusy
vector 50 DNP3NetworkTopology.meter[25].interface$o.channel busy:vector ETV
attr interpolationmode sample-hold
attr recordingmode vector
attr source channelBusy
vector 51 DNP3NetworkTopology.Concatenator.MeterInterface$o[25].channel busy:vector ETV
attr interpolationmode sample-hold
attr recordingmode vector
attr source channelBusy
vector 52 DNP3NetworkTopology.meter[26].interface$o.channel busy:vector ETV
attr interpolationmode sample-hold
attr recordingmode vector
attr source channelBusy
vector 53 DNP3NetworkTopology.Concatenator.MeterInterface$o[26].channel busy:vector ETV
attr interpolationmode sample-hold
attr recordingmode vector
attr source channelBusy
vector 54 DNP3NetworkTopology.meter[27].interface$o.channel busy:vector ETV
attr interpolationmode sample-hold
attr recordingmode vector
attr source channelBusy
vector 55 DNP3NetworkTopology.Concatenator.MeterInterface$o[27].channel busy:vector ETV
attr interpolationmode sample-hold
attr recordingmode vector
attr source channelBusy
vector 56 DNP3NetworkTopology.meter[28].interface$o.channel busy:vector ETV
attr interpolationmode sample-hold
attr recordingmode vector
attr source channelBusy
vector 57 DNP3NetworkTopology.Concatenator.MeterInterface$o[28].channel busy:vector ETV
attr interpolationmode sample-hold
attr recordingmode vector
attr source channelBusy
vector 58 DNP3NetworkTopology.meter[29].interface$o.channel busy:vector ETV
attr interpolationmode sample-hold
attr recordingmode vector
attr source channelBusy
vector 59 DNP3NetworkTopology.Concatenator.MeterInterface$o[29].channel busy:vector ETV
attr interpolationmode sample-hold
attr recordingmode vector
attr source channelBusy
vector 60 DNP3NetworkTopology.meter[30].interface$o.channel busy:vector ETV
attr interpolationmode sample-hold
attr recordingmode vector
attr source channelBusy
vector 61 DNP3NetworkTopology.Concatenator.MeterInterface$o[30].channel busy:vector ETV
attr interpolationmode sample-hold
attr recordingmode vector
attr source channelBusy
vector 62 DNP3NetworkTopology.meter[31].interface$o.channel busy:vector ETV
attr interpolationmode sample-hold
attr recordingmode vector
attr source channelBusy
vector 63 DNP3NetworkTopology.Concatenator.MeterInterface$o[31].channel busy:vector ETV
attr interpolationmode sample-hold
attr recordingmode vector
attr source channelBusy
vector 64 DNP3NetworkTopology.meter[32].interface$o.channel busy:vector ETV
attr interpolationmode sample-hold
attr recordingmode vector
attr source channelBusy
vector 65 DNP3NetworkTopology.Concatenator.MeterInterface$o[32].channel busy:vector ETV
attr interpolationmode sample-hold
attr recordingmode vector
attr source channelBusy
vector 66 DNP3NetworkTopology.meter[33].interface$o.channel busy:vector ETV
attr interpolationmode sample-hold
attr recordingmode vector
attr source channelBusy
vector 67 DNP3NetworkTopology.Concatenator.MeterInterface$o[33].channel busy:vector ETV
attr interpolationmode sample-hold
attr recordingmode vector
attr source channelBusy
vector 68 DNP3NetworkTopology.meter[34].interface$o.channel busy:vector ETV
attr interpolationmode sample-hold
attr recordingmode vector
attr source channelBusy
vector 69 DNP3NetworkTopology.Concatenator.MeterInterface$o[34].channel busy:vector ETV
attr interpolationmode sample-hold
attr recordingmode vector
attr source channelBusy
vector 70 DNP3NetworkTopology.meter[35].interface$o.channel busy:vector ETV
attr interpolationmode sample-hold
attr recordingmode vector
attr source channelBusy
vector 71 DNP3NetworkTopology.Concatenator.MeterInterface$o[35].channel busy:vector ETV
attr interpolationmode sample-hold
attr recordingmode vector
attr source channelBusy
vector 72 DNP3NetworkTopology.meter[36].interface$o.channel busy:vector ETV
attr interpolationmode sample-hold
attr recordingmode vector
attr source channelBusy
vector 73 DNP3NetworkTopology.Concatenator.MeterInterface$o[36].channel busy:vector ETV
attr interpolationmode sample-hold
attr recordingmode vector
attr source channelBusy
vector 74 DNP3NetworkTopology.meter[37].interface$o.channel busy:vector ETV
attr interpolationmode sample-hold
attr recordingmode vector
attr source channelBusy
vector 75 DNP3NetworkTopology.Concatenator.MeterInterface$o[37].channel busy:vector ETV
attr interpolationmode sample-hold
attr recordingmode vector
attr source channelBusy
vector 76 DNP3NetworkTopology.meter[38].interface$o.channel busy:vector ETV
attr interpolationmode sample-hold
attr recordingmode vector
attr source channelBusy
vector 77 DNP3NetworkTopology.Concatenator.MeterInterface$o[38].channel busy:vector ETV
attr interpolationmode sample-hold
attr recordingmode vector
attr source channelBusy
vector 78 DNP3NetworkTopology.meter[39].interface$o.channel busy:vector ETV
attr interpolationmode sample-hold
attr recordingmode vector
attr source channelBusy
vector 79 DNP3NetworkTopology.Concatenator.MeterInterface$o[39].channel busy:vector ETV
attr interpolationmode sample-hold
attr recordingmode vector
attr source channelBusy
vector 80 DNP3NetworkTopology.meter[40].interface$o.channel busy:vector ETV
attr interpolationmode sample-hold
attr recordingmode vector
attr source channelBusy
vector 81 DNP3NetworkTopology.Concatenator.MeterInterface$o[40].channel busy:vector ETV
attr interpolationmode sample-hold
attr recordingmode vector
attr source channelBusy
vector 82 DNP3NetworkTopology.meter[41].interface$o.channel busy:vector ETV
attr interpolationmode sample-hold
attr recordingmode vector
attr source channelBusy
vector 83 DNP3NetworkTopology.Concatenator.MeterInterface$o[41].channel busy:vector ETV
attr interpolationmode sample-hold
attr recordingmode vector
attr source channelBusy
vector 84 DNP3NetworkTopology.meter[42].interface$o.channel busy:vector ETV
attr interpolationmode sample-hold
attr recordingmode vector
attr source channelBusy
vector 85 DNP3NetworkTopology.Concatenator.MeterInterface$o[42].channel busy:vector ETV
attr interpolationmode sample-hold
attr recordingmode vector
attr source channelBusy
vector 86 DNP3NetworkTopology.meter[43].interface$o.channel busy:vector ETV
attr interpolationmode sample-hold
attr recordingmode vector
attr source channelBusy
vector 87 DNP3NetworkTopology.Concatenator.MeterInterface$o[43].channel busy:vector ETV
attr interpolationmode sample-hold
attr recordingmode vector
attr source channelBusy
vector 88 DNP3NetworkTopology.meter[44].interface$o.channel busy:vector ETV
attr interpolationmode sample-hold
attr recordingmode vector
attr source channelBusy
vector 89 DNP3NetworkTopology.Concatenator.MeterInterface$o[44].channel busy:vector ETV
attr interpolationmode sample-hold
attr recordingmode vector
attr source channelBusy
vector 90 DNP3NetworkTopology.meter[45].interface$o.channel busy:vector ETV
attr interpolationmode sample-hold
attr recordingmode vector
attr source channelBusy
vector 91 DNP3NetworkTopology.Concatenator.MeterInterface$o[45].channel busy:vector ETV
attr interpolationmode sample-hold
attr recordingmode vector
attr source channelBusy
vector 92 DNP3NetworkTopology.meter[46].interface$o.channel busy:vector ETV
attr interpolationmode sample-hold
attr recordingmode vector
attr source channelBusy
vector 93 DNP3NetworkTopology.Concatenator.MeterInterface$o[46].channel busy:vector ETV
attr interpolationmode sample-hold
attr recordingmode vector
attr source channelBusy
vector 94 DNP3NetworkTopology.meter[47].interface$o.channel busy:vector ETV
attr interpolationmode sample-hold
attr recordingmode vector
attr source channelBusy
vector 95 DNP3NetworkTopology.Concatenator.MeterInterface$o[47].channel busy:vector ETV
attr interpolationmode sample-hold
attr recordingmode vector
attr source channelBusy
vector 96 DNP3NetworkTopology.meter[48].interface$o.channel busy:vector ETV
attr interpolationmode sample-hold
attr recordingmode vector
attr source channelBusy
vector 97 DNP3NetworkTopology.Concatenator.MeterInterface$o[48].channel busy:vector ETV
attr interpolationmode sample-hold
attr recordingmode vector
attr source channelBusy
vector 98 DNP3NetworkTopology.meter[49].interface$o.channel busy:vector ETV
attr interpolationmode sample-hold
attr recordingmode vector
attr source channelBusy
vector 99 DNP3NetworkTopology.Concatenator.MeterInterface$o[49].channel busy:vector ETV
attr interpolationmode sample-hold
attr recordingmode vector
attr source channelBusy
vector 100 DNP3NetworkTopology.Concatenator.DAInterface$o.channel busy:vector ETV
attr interpolationmode sample-hold
attr recordingmode vector
attr source channelBusy
vector 101 DNP3NetworkTopology.distAuto.interface$o.channel busy:vector ETV
attr interpolationmode sample-hold
attr recordingmode vector
attr source channelBusy
vector 102 DNP3NetworkTopology.Concatenator queueLength:vector ETV
attr recordingmode vector
attr source queueLength
attr title "Queue Length"
vector 103 DNP3NetworkTopology.distAuto packetDelay:vector ETV
attr recordingmode vector
attr source packetDelay
attr title "Packet Delay"
0	0	0	0
0	1	0	0
0	1	5	1
0	108	5.0544	0
0	108	5.131038461538	1
0	551	5.138176923076	0
0	551	10	1
0	658	10.0544	0
0	658	10.131038461538	1
0	1101	10.138176923076	0
0	1101	15	1
0	1208	15.0544	0
0	1208	15.131038461538	1
0	1651	15.138176923076	0
0	1651	20	1
0	1758	20.0544	0
0	1758	20.131038461538	1
0	2201	20.138176923076	0
0	2201	25	1
0	2308	25.0544	0
0	2308	25.131038461538	1
0	2751	25.138176923076	0
0	2751	30	1
0	2858	30.0544	0
0	2858	30.131038461538	1
0	3301	30.138176923076	0
0	3301	35	1
0	3408	35.0544	0
0	3408	35.131038461538	1
0	3851	35.138176923076	0
0	3851	40	1
0	3958	40.0544	0
0	3958	40.131038461538	1
0	4401	40.138176923076	0
0	4401	45	1
0	4508	45.0544	0
0	4508	45.131038461538	1
0	4951	45.138176923076	0
0	4951	50	1
0	5058	50.0544	0
0	5058	50.131038461538	1
0	5501	50.138176923076	0
0	5501	55	1
0	5608	55.0544	0
0	5608	55.131038461538	1
0	6051	55.138176923076	0
0	6051	60	1
0	6158	60.0544	0
0	6158	60.131038461538	1
0	6601	60.138176923076	0
0	6601	65	1
0	6708	65.0544	0
0	6708	65.131038461538	1
0	7151	65.138176923076	0
0	7151	70	1
0	7258	70.0544	0
0	7258	70.131038461538	1
0	7701	70.138176923076	0
0	7701	75	1
0	7808	75.0544	0
0	7808	75.131038461538	1
0	8251	75.138176923076	0
0	8251	80	1
0	8358	80.0544	0
0	8358	80.131038461538	1
0	8801	80.138176923076	0
0	8801	85	1
0	8908	85.0544	0
0	8908	85.131038461538	1
0	9351	85.138176923076	0
0	9351	90	1
0	9458	90.0544	0
0	9458	90.131038461538	1
0	9901	90.138176923076	0
0	9901	95	1
0	10008	95.0544	0
0	10008	95.131038461538	1
0	10451	95.138176923076	0
0	10451	100	1
0	10558	100.0544	0
0	10558	100.131038461538	1
0	11001	100.138176923076	0
0	11001	105	1
0	11108	105.0544	0
0	11108	105.131038461538	1
0	11551	105.138176923076	0
0	11551	110	1
0	11658	110.0544	0
0	11658	110.131038461538	1
0	12101	110.138176923076	0
0	12101	115	1
0	12208	115.0544	0
0	12208	115.131038461538	1
0	12651	115.138176923076	0
0	12651	120	1
0	12758	120.0544	0
0	12758	120.131038461538	1
0	13201	120.138176923076	0
0	13201	125	1
0	13308	125.0544	0
0	13308	125.131038461538	1
0	13751	125.138176923076	0
0	13751	130	1
0	13858	130.0544	0
0	13858	130.131038461538	1
0	14301	130.138176923076	0
0	14301	135	1
0	14408	135.0544	0
0	14408	135.131038461538	1
0	14851	135.138176923076	0
0	14851	140	1
0	14958	140.0544	0
0	14958	140.131038461538	1
0	15401	140.138176923076	0
0	15401	145	1
0	15508	145.0544	0
0	15508	145.131038461538	1
0	15951	145.138176923076	0
0	15951	150	1
0	16058	150.0544	0
0	16058	150.131038461538	1
0	16501	150.138176923076	0
0	16501	155	1
0	16608	155.0544	0
0	16608	155.131038461538	1
0	17051	155.138176923076	0
0	17051	160	1
0	17158	160.0544	0
0	17158	160.131038461538	1
0	17601	160.138176923076	0
0	17601	165	1
0	17708	165.0544	0
0	17708	165.131038461538	1
0	18151	165.138176923076	0
0	18151	170	1
0	18258	170.0544	0
0	18258	170.131038461538	1
0	18701	170.138176923076	0
0	18701	175	1
0	18808	175.0544	0
0	18808	175.131038461538	1
0	19251	175.138176923076	0
0	19251	180	1
0	19358	180.0544	0
0	19358	180.131038461538	1
0	19801	180.138176923076	0
0	19801	185	1
0	19908	185.0544	0
0	19908	185.131038461538	1
0	20351	185.138176923076	0
0	20351	190	1
0	20458	190.0544	0
0	20458	190.131038461538	1
0	20901	190.138176923076	0
0	20901	195	1
0	21008	195.0544	0
0	21008	195.131038461538	1
0	21451	195.138176923076	0
0	21451	200	1
0	21558	200.0544	0
0	21558	200.131038461538	1
0	22001	200.138176923076	0
0	22001	205	1
0	22108	205.0544	0
0	22108	205.131038461538	1
0	22551	205.138176923076	0
0	22551	210	1
0	22658	210.0544	0
0	22658	210.131038461538	1
0	23101	210.138176923076	0
0	23101	215	1
0	23208	215.0544	0
0	23208	215.131038461538	1
0	23651	215.138176923076	0
0	23651	220	1
0	23758	220.0544	0
0	23758	220.131038461538	1
0	24201	220.138176923076	0
0	24201	225	1
0	24308	225.0544	0
0	24308	225.131038461538	1
0	24751	225.138176923076	0
0	24751	230	1
0	24858	230.0544	0
0	24858	230.131038461538	1
0	25301	230.138176923076	0
0	25301	235	1
0	25408	235.0544	0
0	25408	235.131038461538	1
0	25851	235.138176923076	0
0	25851	240	1
0	25958	240.0544	0
0	25958	240.131038461538	1
0	26401	240.138176923076	0
0	26401	245	1
0	26508	245.0544	0
0	26508	245.131038461538	1
0	26951	245.138176923076	0
0	26951	250	1
0	27058	250.0544	0
0	27058	250.131038461538	1
0	27501	250.138176923076	0
0	27501	255	1
0	27608	255.0544	0
0	27608	255.131038461538	1
0	28051	255.138176923076	0
0	28051	260	1
0	28158	260.0544	0
0	28158	260.131038461538	1
0	28601	260.138176923076	0
0	28601	265	1
0	28708	265.0544	0
0	28708	265.131038461538	1
0	29151	265.138176923076	0
0	29151	270	1
0	29258	270.0544	0
0	29258	270.131038461538	1
0	29701	270.138176923076	0
0	29701	275	1
0	29808	275.0544	0
0	29808	275.131038461538	1
0	30251	275.138176923076	0
0	30251	280	1
0	30358	280.0544	0
0	30358	280.131038461538	1
0	30801	280.138176923076	0
0	30801	285	1
0	30908	285.0544	0
0	30908	285.131038461538	1
0	31351	285.138176923076	0
0	31351	290	1
0	31458	290.0544	0
0	31458	290.131038461538	1
0	31901	290.138176923076	0
0	31901	295	1
0	32008	295.0544	0
0	32008	295.131038461538	1
0	32451	295.138176923076	0
1	0	0	0
1	103	0	0
1	103	5.108275	1
1	107	5.116644230769	0
1	107	5.1219	1
1	653	5.129038461538	0
1	653	10.108275	1
1	657	10.116644230769	0
1	657	10.1219	1
1	1203	10.129038461538	0
1	1203	15.108275	1
1	1207	15.116644230769	0
1	1207	15.1219	1
1	1753	15.129038461538	0
1	1753	20.108275	1
1	1757	20.116644230769	0
1	1757	20.1219	1
1	2303	20.129038461538	0
1	2303	25.108275	1
1	2307	25.116644230769	0
1	2307	25.1219	1
1	2853	25.129038461538	0
1	2853	30.108275	1
1	2857	30.116644230769	0
1	2857	30.1219	1
1	3403	30.129038461538	0
1	3403	35.108275	1
1	3407	35.116644230769	0
1	3407	35.1219	1
1	3953	35.129038461538	0
1	3953	40.108275	1
1	3957	40.116644230769	0
1	3957	40.1219	1
1	4503	40.129038461538	0
1	4503	45.108275	1
1	4507	45.116644230769	0
1	4507	45.1219	1
1	5053	45.129038461538	0
1	5053	50.108275	1
1	5057	50.116644230769	0
1	5057	50.1219	1
1	5603	50.129038461538	0
1	5603	55.108275	1
1	5607	55.116644230769	0
1	5607	55.1219	1
1	6153	55.129038461538	0
1	6153	60.108275	1
1	6157	60.116644230769	0
1	6157	60.1219	1
1	6703	60.129038461538	0
1	6703	65.108275	1
1	6707	65.116644230769	0
1	6707	65.1219	1
1	7253	65.129038461538	0
1	7253	70.108275	1
1	7257	70.116644230769	0
1	7257	70.1219	1
1	7803	70.129038461538	0
1	7803	75.108275	1
1	7807	75.116644230769	0
1	7807	75.1219	1
1	8353	75.129038461538	0
1	8353	80.108275	1
1	8357	80.116644230769	0
1	8357	80.1219	1
1	8903	80.129038461538	0
1	8903	85.108275	1
1	8907	85.116644230769	0
1	8907	85.1219	1
1	9453	85.129038461538	0
1	9453	90.108275	1
1	9457	90.116644230769	0
1	9457	90.1219	1
1	10003	90.129038461538	0
1	10003	95.108275	1
1	10007	95.116644230769	0
1	10007	95.1219	1
1	10553	95.129038461538	0
1	10553	100.108275	1
1	10557	100.116644230769	0
1	10557	100.1219	1
1	11103	100.129038461538	0
1	11103	105.108275	1
1	11107	105.116644230769	0
1	11107	105.1219	1
1	11653	105.129038461538	0
1	11653	110.108275	1
1	11657	110.116644230769	0
1	11657	110.1219	1
1	12203	110.129038461538	0
1	12203	115.108275	1
1	12207	115.116644230769	0
1	12207	115.1219	1
1	12753	115.129038461538	0
1	12753	120.108275	1
1	12757	120.116644230769	0
1	12757	120.1219	1
1	13303	120.129038461538	0
1	13303	125.108275	1
1	13307	125.116644230769	0
1	13307	125.1219	1
1	13853	125.129038461538	0
1	13853	130.108275	1
1	13857	130.116644230769	0
1	13857	130.1219	1
1	14403	130.129038461538	0
1	14403	135.108275	1
1	14407	135.116644230769	0
1	14407	135.1219	1
1	14953	135.129038461538	0
1	14953	140.108275	1
1	14957	140.116644230769	0
1	14957	140.1219	1
1	15503	140.129038461538	0
1	15503	145.108275	1
1	15507	145.116644230769	0
1	15507	145.1219	1
1	16053	145.129038461538	0
1	16053	150.108275	1
1	16057	150.116644230769	0
1	16057	150.1219	1
1	16603	150.129038461538	0
1	16603	155.108275	1
1	16607	155.116644230769	0
1	16607	155.1219	1
1	17153	155.129038461538	0
1	17153	160.108275	1
1	17157	160.116644230769	0
1	17157	160.1219	1
1	17703	160.129038461538	0
1	17703	165.108275	1
1	17707	165.116644230769	0
1	17707	165.1219	1
1	18253	165.129038461538	0
1	18253	170.108275	1
1	18257	170.116644230769	0
1	18257	170.1219	1
1	18803	170.129038461538	0
1	18803	175.108275	1
1	18807	175.116644230769	0
1	18807	175.1219	1
1	19353	175.129038461538	0
1	19353	180.108275	1
1	19357	180.116644230769	0
1	19357	180.1219	1
1	19903	180.129038461538	0
1	19903	185.108275	1
1	19907	185.116644230769	0
1	19907	185.1219	1
1	20453	185.129038461538	0
1	20453	190.108275	1
1	20457	190.116644230769	0
1	20457	190.1219	1
1	21003	190.129038461538	0
1	21003	195.108275	1
1	21007	195.116644230769	0
1	21007	195.1219	1
1	21553	195.129038461538	0
1	21553	200.108275	1
1	21557	200.116644230769	0
1	21557	200.1219	1
1	22103	200.129038461538	0
1	22103	205.108275	1
1	22107	205.116644230769	0
1	22107	205.1219	1
1	22653	205.129038461538	0
1	22653	210.108275	1
1	22657	210.116644230769	0
1	22657	210.1219	1
1	23203	210.129038461538	0
1	23203	215.108275	1
1	23207	215.116644230769	0
1	23207	215.1219	1
1	23753	215.129038461538	0
1	23753	220.108275	1
1	23757	220.116644230769	0
1	23757	220.1219	1
1	24303	220.129038461538	0
1	24303	225.108275	1
1	24307	225.116644230769	0
1	24307	225.1219	1
1	24853	225.129038461538	0
1	24853	230.108275	1
1	24857	230.116644230769	0
1	24857	230.1219	1
1	25403	230.129038461538	0
1	25403	235.108275	1
1	25407	235.116644230769	0
1	25407	235.1219	1
1	25953	235.129038461538	0
1	25953	240.108275	1
1	25957	240.116644230769	0
1	25957	240.1219	1
1	26503	240.129038461538	0
1	26503	245.108275	1
1	26507	245.116644230769	0
1	26507	245.1219	1
1	27053	245.129038461538	0
1	27053	250.108275	1
1	27057	250.116644230769	0
1	27057	250.1219	1
1	27603	250.129038461538	0
1	27603	255.108275	1
1	27607	255.116644230769	0
1	27607	255.1219	1
1	28153	255.129038461538	0
1	28153	260.108275	1
1	28157	260.116644230769	0
1	28157	260.1219	1
1	28703	260.129038461538	0
1	28703	265.108275	1
1	28707	265.116644230769	0
1	28707	265.1219	1
1	29253	265.129038461538	0
1	29253	270.108275	1
1	29257	270.116644230769	0
1	29257	270.1219	1
1	29803	270.129038461538	0
1	29803	275.108275	1
1	29807	275.116644230769	0
1	29807	275.1219	1
1	30353	275.129038461538	0
1	30353	280.108275	1
1	30357	280.116644230769	0
1	30357	280.1219	1
1	30903	280.129038461538	0
1	30903	285.108275	1
1	30907	285.116644230769	0
1	30907	285.1219	1
1	31453	285.129038461538	0
1	31453	290.108275	1
1	31457	290.116644230769	0
1	31457	290.1219	1
1	32003	290.129038461538	0
1	32003	295.108275	1
1	32007	295.116644230769	0
1	32007	295.1219	1
1	32451	295.129038461538	0
2	0	0	0
2	2	0	0
2	2	5	1
2	115	5.0544	0
2	115	5.158913461538	1
2	552	5.166051923076	0
2	552	10	1
2	665	10.0544	0
2	665	10.158913461538	1
2	1102	10.166051923076	0
2	1102	15	1
2	1215	15.0544	0
2	1215	15.158913461538	1
2	1652	15.166051923076	0
2	1652	20	1
2	1765	20.0544	0
2	1765	20.158913461538	1
2	2202	20.166051923076	0
2	2202	25	1
2	2315	25.0544	0
2	2315	25.158913461538	1
2	2752	25.166051923076	0
2	2752	30	1
2	2865	30.0544	0
2	2865	30.158913461538	1
2	3302	30.166051923076	0
2	3302	35	1
2	3415	35.0544	0
2	3415	35.158913461538	1
2	3852	35.166051923076	0
2	3852	40	1
2	3965	40.0544	0
2	3965	40.158913461538	1
2	4402	40.166051923076	0
2	4402	45	1
2	4515	45.0544	0
2	4515	45.158913461538	1
2	4952	45.166051923076	0
2	4952	50	1
2	5065	50.0544	0
2	5065	50.158913461538	1
2	5502	50.166051923076	0
2	5502	55	1
2	5615	55.0544	0
2	5615	55.158913461538	1
2	6052	55.166051923076	0
2	6052	60	1
2	6165	60.0544	0
2	6165	60.158913461538	1
2	6602	60.166051923076	0
2	6602	65	1
2	6715	65.0544	0
2	6715	65.158913461538	1
2	7152	65.166051923076	0
2	7152	70	1
2	7265	70.0544	0
2	7265	70.158913461538	1
2	7702	70.166051923076	0
2	7702	75	1
2	7815	75.0544	0
2	7815	75.158913461538	1
2	8252	75.166051923076	0
2	8252	80	1
2	8365	80.0544	0
2	8365	80.158913461538	1