version 3
run MediumTraffic_25-0-20260420-14:32:05-27228
attr configname MediumTraffic_25
attr datetime 20260420-14:32:05
attr datetimef 20260420-143205
attr experiment MediumTraffic_25
attr inifile omnetpp.ini
attr iterationvars ""
attr iterationvarsd ""
attr iterationvarsf ""
attr measurement ""
attr network DNP3NetworkTopology
attr processid 27228
attr repetition 0
attr replication #0
attr resultdir results
attr runnumber 0
attr seedset 0
config image-path ../../inet4.5/images
config description "Medium traffic with 25 smart meters"
config *.numMeters 25
config *.distAuto.numMeters 25
config **.eventInterval 5s
config **.eventBytes 442
config network DNP3NetworkTopology
config sim-time-limit 350s
config output-scalar-file MediumTraffic_25.sca
config output-vector-file MediumTraffic_25.vec
config **.scalar-recording true
config **.vector-recording true
config **.result-recording-modes all
config *.distAuto.processingDelay 10ms
config **.totalPackets 500
config **.ackTimeout 2s
config **.stopGenerationTime 300s
config *.meter[*].meterId index

vector 0 DNP3NetworkTopology.meter[0].interface$o.channel busy:vector ETV
attr interpolationmode sample-hold
attr recordingmode vector
attr source channelBusy
vector 1 DNP3NetworkTopology.Concatenator.MeterInterface$o[0].channel busy:vector ETV
attr interpolationmode sample-hold
attr recordingmode vector
attr source channelBusy
vector 2 DNP3NetworkTopology.meter[1].interface$o.channel busy:vector ETV
attr interpolationmode sample-hold
attr recordingmode vector
attr source channelBusy
vector 3 DNP3NetworkTopology.Concatenator.MeterInterface$o[1].channel busy:vector ETV
attr interpolationmode sample-hold
attr recordingmode vector
attr source channelBusy
vector 4 DNP3NetworkTopology.meter[2].interface$o.channel busy:vector ETV
attr interpolationmode sample-hold
attr recordingmode vector
attr source channelBusy
vector 5 DNP3NetworkTopology.Concatenator.MeterInterface$o[2].channel busy:vector ETV
attr interpolationmode sample-hold
attr recordingmode vector
attr source channelBusy
vector 6 DNP3NetworkTopology.meter[3].interface$o.channel busy:vector ETV
attr interpolationmode sample-hold
attr recordingmode vector
attr source channelBusy
vector 7 DNP3NetworkTopology.Concatenator.MeterInterface$o[3].channel busy:vector ETV
attr interpolationmode sample-hold
attr recordingmode vector
attr source channelBusy
vector 8 DNP3NetworkTopology.meter[4].interface$o.channel busy:vector ETV
attr interpolationmode sample-hold
attr recordingmode vector
attr source channelBusy
vector 9 DNP3NetworkTopology.Concatenator.MeterInterface$o[4].channel busy:vector ETV
attr interpolationmode sample-hold
attr recordingmode vector
attr source channelBusy
vector 10 DNP3NetworkTopology.meter[5].interface$o.channel busy:vector ETV
attr interpolationmode sample-hold
attr recordingmode vector
attr source channelBusy
vector 11 DNP3NetworkTopology.Concatenator.MeterInterface$o[5].channel busy:vector ETV
attr interpolationmode sample-hold
attr recordingmode vector
attr source channelBusy
vector 12 DNP3NetworkTopology.meter[6].interface$o.channel busy:vector ETV
attr interpolationmode sample-hold
attr recordingmode vector
attr source channelBusy
vector 13 DNP3NetworkTopology.Concatenator.MeterInterface$o[6].channel busy:vector ETV
attr interpolationmode sample-hold
attr recordingmode vector
attr source channelBusy
vector 14 DNP3NetworkTopology.meter[7].interface$o.channel busy:vector ETV
attr interpolationmode sample-hold
attr recordingmode vector
attr source channelBusy
vector 15 DNP3NetworkTopology.Concatenator.MeterInterface$o[7].channel busy:vector ETV
attr interpolationmode sample-hold
attr recordingmode vector
attr source channelBusy
vector 16 DNP3NetworkTopology.meter[8].interface$o.channel busy:vector ETV
attr interpolationmode sample-hold
attr recordingmode vector
attr source channelBusy
vector 17 DNP3NetworkTopology.Concatenator.MeterInterface$o[8].channel busy:vector ETV
attr interpolationmode sample-hold
attr recordingmode vector
attr source channelBusy
vector 18 DNP3NetworkTopology.meter[9].interface$o.channel busy:vector ETV
attr interpolationmode sample-hold
attr recordingmode vector
attr source channelBusy
vector 19 DNP3NetworkTopology.Concatenator.MeterInterface$o[9].channel busy:vector ETV
attr interpolationmode sample-hold
attr recordingmode vector
attr source channelBusy
vector 20 DNP3NetworkTopology.meter[10].interface$o.channel busy:vector ETV
attr interpolationmode sample-hold
attr recordingmode vector
attr source channelBusy
vector 21 DNP3NetworkTopology.Concatenator.MeterInterface$o[10].channel busy:vector ETV
attr interpolationmode sample-hold
attr recordingmode vector
attr source channelBusy
vector 22 DNP3NetworkTopology.meter[11].interface$o.channel busy:vector ETV
attr interpolationmode sample-hold
attr recordingmode vector
attr source channelBusy
vector 23 DNP3NetworkTopology.Concatenator.MeterInterface$o[11].channel busy:vector ETV
attr interpolationmode sample-hold
attr recordingmode vector
attr source channelBusy
vector 24 DNP3NetworkTopology.meter[12].interface$o.channel busy:vector ETV
attr interpolationmode sample-hold
attr recordingmode vector
attr source channelBusy
vector 25 DNP3NetworkTopology.Concatenator.MeterInterface$o[12].channel busy:vector ETV
attr interpolationmode sample-hold
attr recordingmode vector
attr source channelBusy
vector 26 DNP3NetworkTopology.meter[13].interface$o.channel busy:vector ETV
attr interpolationmode sample-hold
attr recordingmode vector
attr source channelBusy
vector 27 DNP3NetworkTopology.Concatenator.MeterInterface$o[13].channel busy:vector ETV
attr interpolationmode sample-hold
attr recordingmode vector
attr source channelBusy
vector 28 DNP3NetworkTopology.meter[14].interface$o.channel busy:vector ETV
attr interpolationmode sample-hold
attr recordingmode vector
attr source channelBusy
vector 29 DNP3NetworkTopology.Concatenator.MeterInterface$o[14].channel busy:vector ETV
attr interpolationmode sample-hold
attr recordingmode vector
attr source channelBusy
vector 30 DNP3NetworkTopology.meter[15].interface$o.channel busy:vector ETV
attr interpolationmode sample-hold
attr recordingmode vector
attr source channelBusy
vector 31 DNP3NetworkTopology.Concatenator.MeterInterface$o[15].channel busy:vector ETV
attr interpolationmode sample-hold
attr recordingmode vector
attr source channelBusy
vector 32 DNP3NetworkTopology.meter[16].interface$o.channel busy:vector ETV
attr interpolationmode sample-hold
attr recordingmode vector
attr source channelBusy
vector 33 DNP3NetworkTopology.Concatenator.MeterInterface$o[16].channel busy:vector ETV
attr interpolationmode sample-hold
attr recordingmode vector
attr source channelBusy
vector 34 DNP3NetworkTopology.meter[17].interface$o.channel busy:vector ETV
attr interpolationmode sample-hold
attr recordingmode vector
attr source channelBusy
vector 35 DNP3NetworkTopology.Concatenator.MeterInterface$o[17].channel busy:vector ETV
attr interpolationmode sample-hold
attr recordingmode vector
attr source channelBusy
vector 36 DNP3NetworkTopology.meter[18].interface$o.channel busy:vector ETV
attr interpolationmode sample-hold
attr recordingmode vector
attr source channelBusy
vector 37 DNP3NetworkTopology.Concatenator.MeterInterface$o[18].channel busy:vector ETV
attr interpolationmode sample-hold
attr recordingmode vector
attr source channelBusy
vector 38 DNP3NetworkTopology.meter[19].interface$o.channel busy:vector ETV
attr interpolationmode sample-hold
attr recordingmode vector
attr source channelBusy
vector 39 DNP3NetworkTopology.Concatenator.MeterInterface$o[19].channel busy:vector ETV
attr interpolationmode sample-hold
attr recordingmode vector
attr source channelBusy
vector 40 DNP3NetworkTopology.meter[20].interface$o.channel busy:vector ETV
attr interpolationmode sample-hold
attr recordingmode vector
attr source channelBusy
vector 41 DNP3NetworkTopology.Concatenator.MeterInterface$o[20].channel busy:vector ETV
attr interpolationmode sample-hold
attr recordingmode vector
attr source channelBusy
vector 42 DNP3NetworkTopology.meter[21].interface$o.channel busy:vector ETV
attr interpolationmode sample-hold
attr recordingmode vector
attr source channelBusy
vector 43 DNP3NetworkTopology.Concatenator.MeterInterface$o[21].channel busy:vector ETV
attr interpolationmode sample-hold
attr recordingmode vector
attr source channelBusy
vector 44 DNP3NetworkTopology.meter[22].interface$o.channel busy:vector ETV
attr interpolationmode sample-hold
attr recordingmode vector
attr source channelBusy
vector 45 DNP3NetworkTopology.Concatenator.MeterInterface$o[22].channel busy:vector ETV
attr interpolationmode sample-hold
attr recordingmode vector
attr source channelBusy
vector 46 DNP3NetworkTopology.meter[23].interface$o.channel busy:vector ETV
attr interpolationmode sample-hold
attr recordingmode vector
attr source channelBusy
vector 47 DNP3NetworkTopology.Concatenator.MeterInterface$o[23].channel busy:vector ETV
attr interpolationmode sample-hold
attr recordingmode vector
attr source channelBusy
vector 48 DNP3NetworkTopology.meter[24].interface$o.channel busy:vector ETV
attr interpolationmode sample-hold
attr recordingmode vector
attr source channelBusy
vector 49 DNP3NetworkTopology.Concatenator.MeterInterface$o[24].channel busy:vector ETV
attr interpolationmode sample-hold
attr recordingmode vector
attr source channelBusy
vector 50 DNP3NetworkTopology.Concatenator.DAInterface$o.channel busy:vector ETV
attr interpolationmode sample-hold
attr recordingmode vector
attr source channelBusy
vector 51 DNP3NetworkTopology.distAuto.interface$o.channel busy:vector ETV
attr interpolationmode sample-hold
attr recordingmode vector
attr source channelBusy
vector 52 DNP3NetworkTopology.Concatenator queueLength:vector ETV
attr recordingmode vector
attr source queueLength
attr title "Queue Length"
vector 53 DNP3NetworkTopology.distAuto packetDelay:vector ETV
attr recordingmode vector
attr source packetDelay
attr title "Packet Delay"
0	0	0	0
0	1	0	0
0	1	5	1
0	58	5.0544	0
0	58	5.131038461538	1
0	276	5.138176923076	0
0	276	10	1
0	333	10.0544	0
0	333	10.131038461538	1
0	551	10.138176923076	0
0	551	15	1
0	608	15.0544	0
0	608	15.131038461538	1
0	826	15.138176923076	0
0	826	20	1
0	883	20.0544	0
0	883	20.131038461538	1
0	1101	20.138176923076	0
0	1101	25	1
0	1158	25.0544	0
0	1158	25.131038461538	1
0	1376	25.138176923076	0
0	1376	30	1
0	1433	30.0544	0
0	1433	30.131038461538	1
0	1651	30.138176923076	0
0	1651	35	1
0	1708	35.0544	0
0	1708	35.131038461538	1
0	1926	35.138176923076	0
0	1926	40	1
0	1983	40.0544	0
0	1983	40.131038461538	1
0	2201	40.138176923076	0
0	2201	45	1
0	2258	45.0544	0
0	2258	45.131038461538	1
0	2476	45.138176923076	0
0	2476	50	1
0	2533	50.0544	0
0	2533	50.131038461538	1
0	2751	50.138176923076	0
0	2751	55	1
0	2808	55.0544	0
0	2808	55.131038461538	1
0	3026	55.138176923076	0
0	3026	60	1
0	3083	60.0544	0
0	3083	60.131038461538	1
0	3301	60.138176923076	0
0	3301	65	1
0	3358	65.0544	0
0	3358	65.131038461538	1
0	3576	65.138176923076	0
0	3576	70	1
0	3633	70.0544	0
0	3633	70.131038461538	1
0	3851	70.138176923076	0
0	3851	75	1
0	3908	75.0544	0
0	3908	75.131038461538	1
0	4126	75.138176923076	0
0	4126	80	1
0	4183	80.0544	0
0	4183	80.131038461538	1
0	4401	80.138176923076	0
0	4401	85	1
0	4458	85.0544	0
0	4458	85.131038461538	1
0	4676	85.138176923076	0
0	4676	90	1
0	4733	90.0544	0
0	4733	90.131038461538	1
0	4951	90.138176923076	0
0	4951	95	1
0	5008	95.0544	0
0	5008	95.131038461538	1
0	5226	95.138176923076	0
0	5226	100	1
0	5283	100.0544	0
0	5283	100.131038461538	1
0	5501	100.138176923076	0
0	5501	105	1
0	5558	105.0544	0
0	5558	105.131038461538	1
0	5776	105.138176923076	0
0	5776	110	1
0	5833	110.0544	0
0	5833	110.131038461538	1
0	6051	110.138176923076	0
0	6051	115	1
0	6108	115.0544	0
0	6108	115.131038461538	1
0	6326	115.138176923076	0
0	6326	120	1
0	6383	120.0544	0
0	6383	120.131038461538	1
0	6601	120.138176923076	0
0	6601	125	1
0	6658	125.0544	0
0	6658	125.131038461538	1
0	6876	125.138176923076	0
0	6876	130	1
0	6933	130.0544	0
0	6933	130.131038461538	1
0	7151	130.138176923076	0
0	7151	135	1
0	7208	135.0544	0
0	7208	135.131038461538	1
0	7426	135.138176923076	0
0	7426	140	1
0	7483	140.0544	0
0	7483	140.131038461538	1
0	7701	140.138176923076	0
0	7701	145	1
0	7758	145.0544	0
0	7758	145.131038461538	1
0	7976	145.138176923076	0
0	7976	150	1
0	8033	150.0544	0
0	8033	150.131038461538	1
0	8251	150.138176923076	0
0	8251	155	1
0	8308	155.0544	0
0	8308	155.131038461538	1
0	8526	155.138176923076	0
0	8526	160	1
0	8583	160.0544	0
0	8583	160.131038461538	1
0	8801	160.138176923076	0
0	8801	165	1
0	8858	165.0544	0
0	8858	165.131038461538	1
0	9076	165.138176923076	0
0	9076	170	1
0	9133	170.0544	0
0	9133	170.131038461538	1
0	9351	170.138176923076	0
0	9351	175	1
0	9408	175.0544	0
0	9408	175.131038461538	1
0	9626	175.138176923076	0
0	9626	180	1
0	9683	180.0544	0
0	9683	180.131038461538	1
0	9901	180.138176923076	0
0	9901	185	1
0	9958	185.0544	0
0	9958	185.131038461538	1
0	10176	185.138176923076	0
0	10176	190	1
0	10233	190.0544	0
0	10233	190.131038461538	1
0	10451	190.138176923076	0
0	10451	195	1
0	10508	195.0544	0
0	10508	195.131038461538	1
0	10726	195.138176923076	0
0	10726	200	1
0	10783	200.0544	0
0	10783	200.131038461538	1
0	11001	200.138176923076	0
0	11001	205	1
0	11058	205.0544	0
0	11058	205.131038461538	1
0	11276	205.138176923076	0
0	11276	210	1
0	11333	210.0544	0
0	11333	210.131038461538	1
0	11551	210.138176923076	0
0	11551	215	1
0	11608	215.0544	0
0	11608	215.131038461538	1
0	11826	215.138176923076	0
0	11826	220	1
0	11883	220.0544	0
0	11883	220.131038461538	1
0	12101	220.138176923076	0
0	12101	225	1
0	12158	225.0544	0
0	12158	225.131038461538	1
0	12376	225.138176923076	0
0	12376	230	1
0	12433	230.0544	0
0	12433	230.131038461538	1
0	12651	230.138176923076	0
0	12651	235	1
0	12708	235.0544	0
0	12708	235.131038461538	1
0	12926	235.138176923076	0
0	12926	240	1
0	12983	240.0544	0
0	12983	240.131038461538	1
0	13201	240.138176923076	0
0	13201	245	1
0	13258	245.0544	0
0	13258	245.131038461538	1
0	13476	245.138176923076	0
0	13476	250	1
0	13533	250.0544	0
0	13533	250.131038461538	1
0	13751	250.138176923076	0
0	13751	255	1
0	13808	255.0544	0
0	13808	255.131038461538	1
0	14026	255.138176923076	0
0	14026	260	1
0	14083	260.0544	0
0	14083	260.131038461538	1
0	14301	260.138176923076	0
0	14301	265	1
0	14358	265.0544	0
0	14358	265.131038461538	1
0	14576	265.138176923076	0
0	14576	270	1
0	14633	270.0544	0
0	14633	270.131038461538	1
0	14851	270.138176923076	0
0	14851	275	1
0	14908	275.0544	0
0	14908	275.131038461538	1
0	15126	275.138176923076	0
0	15126	280	1
0	15183	280.0544	0
0	15183	280.131038461538	1
0	15401	280.138176923076	0
0	15401	285	1
0	15458	285.0544	0
0	15458	285.131038461538	1
0	15676	285.138176923076	0
0	15676	290	1
0	15733	290.0544	0
0	15733	290.131038461538	1
0	15951	290.138176923076	0
0	15951	295	1
0	16008	295.0544	0
0	16008	295.131038461538	1
0	16226	295.138176923076	0
1	0	0	0
1	53	0	0
1	53	5.108275	1
1	57	5.116644230769	0
1	57	5.1219	1
1	328	5.129038461538	0
1	328	10.108275	1
1	332	10.116644230769	0
1	332	10.1219	1
1	603	10.129038461538	0
1	603	15.108275	1
1	607	15.116644230769	0
1	607	15.1219	1
1	878	15.129038461538	0
1	878	20.108275	1
1	882	20.116644230769	0
1	882	20.1219	1
1	1153	20.129038461538	0
1	1153	25.108275	1
1	1157	25.116644230769	0
1	1157	25.1219	1
1	1428	25.129038461538	0
1	1428	30.108275	1
1	1432	30.116644230769	0
1	1432	30.1219	1
1	1703	30.129038461538	0
1	1703	35.108275	1
1	1707	35.116644230769	0
1	1707	35.1219	1
1	1978	35.129038461538	0
1	1978	40.108275	1
1	1982	40.116644230769	0
1	1982	40.1219	1
1	2253	40.129038461538	0
1	2253	45.108275	1
1	2257	45.116644230769	0
1	2257	45.1219	1
1	2528	45.129038461538	0
1	2528	50.108275	1
1	2532	50.116644230769	0
1	2532	50.1219	1
1	2803	50.129038461538	0
1	2803	55.108275	1
1	2807	55.116644230769	0
1	2807	55.1219	1
1	3078	55.129038461538	0
1	3078	60.108275	1
1	3082	60.116644230769	0
1	3082	60.1219	1
1	3353	60.129038461538	0
1	3353	65.108275	1
1	3357	65.116644230769	0
1	3357	65.1219	1
1	3628	65.129038461538	0
1	3628	70.108275	1
1	3632	70.116644230769	0
1	3632	70.1219	1
1	3903	70.129038461538	0
1	3903	75.108275	1
1	3907	75.116644230769	0
1	3907	75.1219	1
1	4178	75.129038461538	0
1	4178	80.108275	1
1	4182	80.116644230769	0
1	4182	80.1219	1
1	4453	80.129038461538	0
1	4453	85.108275	1
1	4457	85.116644230769	0
1	4457	85.1219	1
1	4728	85.129038461538	0
1	4728	90.108275	1
1	4732	90.116644230769	0
1	4732	90.1219	1
1	5003	90.129038461538	0
1	5003	95.108275	1
1	5007	95.116644230769	0
1	5007	95.1219	1
1	5278	95.129038461538	0
1	5278	100.108275	1
1	5282	100.116644230769	0
1	5282	100.1219	1
1	5553	100.129038461538	0
1	5553	105.108275	1
1	5557	105.116644230769	0
1	5557	105.1219	1
1	5828	105.129038461538	0
1	5828	110.108275	1
1	5832	110.116644230769	0
1	5832	110.1219	1
1	6103	110.129038461538	0
1	6103	115.108275	1
1	6107	115.116644230769	0
1	6107	115.1219	1
1	6378	115.129038461538	0
1	6378	120.108275	1
1	6382	120.116644230769	0
1	6382	120.1219	1
1	6653	120.129038461538	0
1	6653	125.108275	1
1	6657	125.116644230769	0
1	6657	125.1219	1
1	6928	125.129038461538	0
1	6928	130.108275	1
1	6932	130.116644230769	0
1	6932	130.1219	1
1	7203	130.129038461538	0
1	7203	135.108275	1
1	7207	135.116644230769	0
1	7207	135.1219	1
1	7478	135.129038461538	0
1	7478	140.108275	1
1	7482	140.116644230769	0
1	7482	140.1219	1
1	7753	140.129038461538	0
1	7753	145.108275	1
1	7757	145.116644230769	0
1	7757	145.1219	1
1	8028	145.129038461538	0
1	8028	150.108275	1
1	8032	150.116644230769	0
1	8032	150.1219	1
1	8303	150.129038461538	0
1	8303	155.108275	1
1	8307	155.116644230769	0
1	8307	155.1219	1
1	8578	155.129038461538	0
1	8578	160.108275	1
1	8582	160.116644230769	0
1	8582	160.1219	1
1	8853	160.129038461538	0
1	8853	165.108275	1
1	8857	165.116644230769	0
1	8857	165.1219	1
1	9128	165.129038461538	0
1	9128	170.108275	1
1	9132	170.116644230769	0
1	9132	170.1219	1
1	9403	170.129038461538	0
1	9403	175.108275	1
1	9407	175.116644230769	0
1	9407	175.1219	1
1	9678	175.129038461538	0
1	9678	180.108275	1
1	9682	180.116644230769	0
1	9682	180.1219	1
1	9953	180.129038461538	0
1	9953	185.108275	1
1	9957	185.116644230769	0
1	9957	185.1219	1
1	10228	185.129038461538	0
1	10228	190.108275	1
1	10232	190.116644230769	0
1	10232	190.1219	1
1	10503	190.129038461538	0
1	10503	195.108275	1
1	10507	195.116644230769	0
1	10507	195.1219	1
1	10778	195.129038461538	0
1	10778	200.108275	1
1	10782	200.116644230769	0
1	10782	200.1219	1
1	11053	200.129038461538	0
1	11053	205.108275	1
1	11057	205.116644230769	0
1	11057	205.1219	1
1	11328	205.129038461538	0
1	11328	210.108275	1
1	11332	210.116644230769	0
1	11332	210.1219	1
1	11603	210.129038461538	0
1	11603	215.108275	1
1	11607	215.116644230769	0
1	11607	215.1219	1
1	11878	215.129038461538	0
1	11878	220.108275	1
1	11882	220.116644230769	0
1	11882	220.1219	1
1	12153	220.129038461538	0
1	12153	225.108275	1
1	12157	225.116644230769	0
1	12157	225.1219	1
1	12428	225.129038461538	0
1	12428	230.108275	1
1	12432	230.116644230769	0
1	12432	230.1219	1
1	12703	230.129038461538	0
1	12703	235.108275	1
1	12707	235.116644230769	0
1	12707	235.1219	1
1	12978	235.129038461538	0
1	12978	240.108275	1
1	12982	240.116644230769	0
1	12982	240.1219	1
1	13253	240.129038461538	0
1	13253	245.108275	1
1	13257	245.116644230769	0
1	13257	245.1219	1
1	13528	245.129038461538	0
1	13528	250.108275	1
1	13532	250.116644230769	0
1	13532	250.1219	1
1	13803	250.129038461538	0
1	13803	255.108275	1
1	13807	255.116644230769	0
1	13807	255.1219	1
1	14078	255.129038461538	0
1	14078	260.108275	1
1	14082	260.116644230769	0
1	14082	260.1219	1
1	14353	260.129038461538	0
1	14353	265.108275	1
1	14357	265.116644230769	0
1	14357	265.1219	1
1	14628	265.129038461538	0
1	14628	270.108275	1
1	14632	270.116644230769	0
1	14632	270.1219	1
1	14903	270.129038461538	0
1	14903	275.108275	1
1	14907	275.116644230769	0
1	14907	275.1219	1
1	15178	275.129038461538	0
1	15178	280.108275	1
1	15182	280.116644230769	0
1	15182	280.1219	1
1	15453	280.129038461538	0
1	15453	285.108275	1
1	15457	285.116644230769	0
1	15457	285.1219	1
1	15728	285.129038461538	0
1	15728	290.108275	1
1	15732	290.116644230769	0
1	15732	290.1219	1
1	16003	290.129038461538	0
1	16003	295.108275	1
1	16007	295.116644230769	0
1	16007	295.1219	1
1	16226	295.129038461538	0
2	0	0	0
2	2	0	0
2	2	5	1
2	65	5.0544	0
2	65	5.158913461538	1
2	277	5.166051923076	0
2	277	10	1
2	340	10.0544	0
2	340	10.158913461538	1
2	552	10.166051923076	0
2	552	15	1
2	615	15.0544	0
2	615	15.158913461538	1
2	827	15.166051923076	0
2	827	20	1
2	890	20.0544	0
2	890	20.158913461538	1
2	1102	20.166051923076	0
2	1102	25	1
2	1165	25.0544	0
2	1165	25.158913461538	1
2	1377	25.166051923076	0
2	1377	30	1
2	1440	30.0544	0
2	1440	30.158913461538	1
2	1652	30.166051923076	0
2	1652	35	1
2	1715	35.0544	0
2	1715	35.158913461538	1
2	1927	35.166051923076	0
2	1927	40	1
2	1990	40.0544	0
2	1990	40.158913461538	1
2	2202	40.166051923076	0
2	2202	45	1
2	2265	45.0544	0
2	2265	45.158913461538	1
2	2477	45.166051923076	0
2	2477	50	1
2	2540	50.0544	0
2	2540	50.158913461538	1
2	2752	50.166051923076	0
2	2752	55	1
2	2815	55.0544	0
2	2815	55.158913461538	1
2	3027	55.166051923076	0
2	3027	60	1
2	3090	60.0544	0
2	3090	60.158913461538	1
2	3302	60.166051923076	0
2	3302	65	1
2	3365	65.0544	0
2	3365	65.158913461538	1
2	3577	65.166051923076	0
2	3577	70	1
2	3640	70.0544	0
2	3640	70.158913461538	1
2	3852	70.166051923076	0
2	3852	75	1
2	3915	75.0544	0
2	3915	75.158913461538	1
2	4127	75.166051923076	0
2	4127	80	1
2	4190	80.0544	0
2	4190	80.158913461538	1
2	4402	80.166051923076	0
2	4402	85	1
2	4465	85.0544	0
2	4465	85.158913461538	1
2	4677	85.166051923076	0
2	4677	90	1
2	4740	90.0544	0
2	4740	90.158913461538	1
2	4952	90.166051923076	0
2	4952	95	1
2	5015	95.0544	0
2	5015	95.158913461538	1
2	5227	95.166051923076	0
2	5227	100	1
2	5290	100.0544	0
2	5290	100.158913461538	1
2	5502	100.166051923076	0
2	5502	105	1
2	5565	105.0544	0
2	5565	105.158913461538	1
2	5777	105.166051923076	0
2	5777	110	1
2	5840	110.0544	0
2	5840	110.158913461538	1
2	6052	110.166051923076	0
2	6052	115	1
2	6115	115.0544	0
2	6115	115.158913461538	1
2	6327	115.166051923076	0
2	6327	120	1
2	6390	120.0544	0
2	6390	120.158913461538	1
2	6602	120.166051923076	0
2	6602	125	1
2	6665	125.0544	0
2	6665	125.158913461538	1
2	6877	125.166051923076	0
2	6877	130	1
2	6940	130.0544	0
2	6940	130.158913461538	1
2	7152	130.166051923076	0
2	7152	135	1
2	7215	135.0544	0
2	7215	135.158913461538	1
2	7427	135.166051923076	0
2	7427	140	1
2	7490	140.0544	0
2	7490	140.158913461538	1
2	7702	140.166051923076	0
2	7702	145	1
2	7765	145.0544	0
2	7765	145.158913461538	1
2	7977	145.166051923076	0
2	7977	150	1
2	8040	150.0544	0
2	8040	150.158913461538	1
2	8252	150.166051923076	0
2	8252	155	1
2	8315	155.0544	0
2	8315	155.158913461538	1
2	8527	155.166051923076	0
2	8527	160	1
2	8590	160.0544	0
2	8590	160.158913461538	1
2	8802	160.166051923076	0
2	8802	165	1
2	8865	165.0544	0
2	8865	165.158913461538	1
2	9077	165.166051923076	0
2	9077	170	1
2	9140	170.0544	0
2	9140	170.158913461538	1
2	9352	170.166051923076	0
2	9352	175	1
2	9415	175.0544	0
2	9415	175.158913461538	1
2	9627	175.166051923076	0
2	9627	180	1
2	9690	180.0544	0
2	9690	180.158913461538	1
2	9902	180.166051923076	0
2	9902	185	1
2	9965	185.0544	0
2	9965	185.158913461538	1
2	10177	185.166051923076	0
2	10177	190	1
2	10240	190.0544	0
2	10240	190.158913461538	1
2	10452	190.166051923076	0
2	10452	195	1
2	10515	195.0544	0
2	10515	195.158913461538	1
2	10727	195.166051923076	0
2	10727	200	1
2	10790	200.0544	0
2	10790	200.158913461538	1
2	11002	200.166051923076	0
2	11002	205	1
2	11065	205.0544	0
2	11065	205.158913461538	1
2	11277	205.166051923076	0
2	11277	210	1
2	11340	210.0544	0
2	11340	210.158913461538	1
2	11552	210.166051923076	0
2	11552	215	1
2	11615	215.0544	0
2	11615	215.158913461538	1
2	11827	215.166051923076	0
2	11827	220	1
2	11890	220.0544	0
2	11890	220.158913461538	1
2	12102	220.166051923076	0
2	12102	225	1
2	12165	225.0544	0
2	12165	225.158913461538	1
2	12377	225.166051923076	0
2	12377	230	1
2	12440	230.0544	0
2	12440	230.158913461538	1
2	12652	230.166051923076	0
2	12652	235	1
2	12715	235.0544	0
2	12715	235.158913461538	1
2	12927	235.166051923076	0
2	12927	240	1
2	12990	240.0544	0
2	12990	240.158913461538	1
2	13202	240.166051923076	0
2	13202	245	1
2	13265	245.0544	0
2	13265	245.158913461538	1
2	13477	245.166051923076	0
2	13477	250	1
2	13540	250.0544	0
2	13540	250.158913461538	1
2	13752	250.166051923076	0
2	13752	255	1
2	13815	255.0544	0
2	13815	255.158913461538	1
2	14027	255.166051923076	0
2	14027	260	1
2	14090	260.0544	0
2	14090	260.158913461538	1
2	14302	260.166051923076	0
2	14302	265	1
2	14365	265.0544	0
2	14365	265.158913461538	1
2	14577	265.166051923076	0
2	14577	270	1
2	14640	270.0544	0
2	14640	270.158913461538	1
2	14852	270.166051923076	0
2	14852	275	1
2	14915	275.0544	0
2	14915	275.158913461538	1
2	15127	275.166051923076	0
2	15127	280	1
2	15190	280.0544	0
2	15190	280.158913461538	1
2	15402	280.166051923076	0
2	15402	285	1
2	15465	285.0544	0
2	15465	285.158913461538	1
2	15677	285.166051923076	0
2	15677	290	1
2	15740	290.0544	0
2	15740	290.158913461538	1
2	15952	290.166051923076	0
2	15952	295	1
2	16015	295.0544	0
2	16015	295.158913461538	1
2	16226	295.166051923076	0
3	0	0	0
3	59	0	0
3	59	5.13615	1
3	64	5.144519230769	0
3	64	5.149775	1
3	334	5.156913461538	0
3	334	10.13615	1
3	339	10.144519230769	0
3	339	10.149775	1
3	609	10.156913461538	0
3	609	15.13615	1
3	614	15.144519230769	0
3	614	15.149775	1
3	884	15.156913461538	0
3	884	20.13615	1
3	889	20.144519230769	0
3	889	20.149775	1
3	1159	20.156913461538	0
3	1159	25.13615	1
3	1164	25.144519230769	0
3	1164	25.149775	1
3	1434	25.156913461538	0
3	1434	30.13615	1
3	1439	30.144519230769	0
3	1439	30.149775	1
3	1709	30.156913461538	0
3	1709	35.13615	1
3	1714	35.144519230769	0
3	1714	35.149775	1
3	1984	35.156913461538	0
3	1984	40.13615	1
3	1989	40.144519230769	0
3	1989	40.149775	1
3	2259	40.156913461538	0
3	2259	45.13615	1
3	2264	45.144519230769	0
3	2264	45.149775	1
3	2534	45.156913461538	0
3	2534	50.13615	1
3	2539	50.144519230769	0
3	2539	50.149775	1
3	2809	50.156913461538	0
3	2809	55.13615	1
3	2814	55.144519230769	0
3	2814	55.149775	1
3	3084	55.156913461538	0
3	3084	60.13615	1
3	3089	60.144519230769	0
3	3089	60.149775	1
3	3359	60.156913461538	0
3	3359	65.13615	1
3	3364	65.144519230769	0
3	3364	65.149775	1
3	3634	65.156913461538	0
3	3634	70.13615	1
3	3639	70.144519230769	0
3	3639	70.149775	1
3	3909	70.156913461538	0
3	3909	75.13615	1
3	3914	75.144519230769	0
3	3914	75.149775	1
3	4184	75.156913461538	0
3	4184	80.13615	1
3	4189	80.144519230769	0
3	4189	80.149775	1
3	4459	80.156913461538	0
3	4459	85.13615	1
3	4464	85.144519230769	0
3	4464	85.149775	1
3	4734	85.156913461538	0
3	4734	90.13615	1
3	4739	90.144519230769	0
3	4739	90.149775	1
3	5009	90.156913461538	0
3	5009	95.13615	1
3	5014	95.144519230769	0
3	5014	95.149775	1
3	5284	95.156913461538	0
3	5284	100.13615	1
3	5289	100.144519230769	0
3	5289	100.149775	1
3	5559	100.156913461538	0
3	5559	105.13615	1
3	5564	105.144519230769	0
3	5564	105.149775	1
3	5834	105.156913461538	0
3	5834	110.13615	1
3	5839	110.144519230769	0
3	5839	110.149775	1
3	6109	110.156913461538	0
3	6109	115.13615	1
3	6114	115.144519230769	0
3	6114	115.149775	1
3	6384	115.156913461538	0
3	6384	120.13615	1
3	6389	120.144519230769	0
3	6389	120.149775	1
3	6659	120.156913461538	0
3	6659	125.13615	1
3	6664	125.144519230769	0
3	6664	125.149775	1
3	6934	125.156913461538	0
3	6934	130.13615	1
3	6939	130.144519230769	0
3	6939	130.149775	1
3	7209	130.156913461538	0
3	7209	135.13615	1
3	7214	135.144519230769	0
3	7214	135.149775	1
3	7484	135.156913461538	0
3	7484	140.13615	1
3	7489	140.144519230769	0
3	7489	140.149775	1
3	7759	140.156913461538	0
3	7759	145.13615	1
3	7764	145.144519230769	0
3	7764	145.149775	1
3	8034	145.156913461538	0
3	8034	150.13615	1
3	8039	150.144519230769	0
3	8039	150.149775	1
3	8309	150.156913461538	0
3	8309	155.13615	1
3	8314	155.144519230769	0
3	8314	155.149775	1
3	8584	155.156913461538	0
3	8584	160.13615	1
3	8589	160.144519230769	0
3	8589	160.149775	1
3	8859	160.156913461538	0
3	8859	165.13615	1
3	8864	165.144519230769	0
3	8864	165.149775	1
3	9134	165.156913461538	0
3	9134	170.13615	1
3	9139	170.144519230769	0
3	9139	170.149775	1
3	9409	170.156913461538	0
3	9409	175.13615	1
3	9414	175.144519230769	0
3	9414	175.149775	1
3	9684	175.156913461538	0
3	9684	180.13615	1
3	9689	180.144519230769	0
3	9689	180.149775	1
3	9959	180.156913461538	0
3	9959	185.13615	1
3	9964	185.144519230769	0
3	9964	185.149775	1
3	10234	185.156913461538	0
3	10234	190.13615	1
3	10239	190.144519230769	0
3	10239	190.149775	1
3	10509	190.156913461538	0
3	10509	195.13615	1
3	10514	195.144519230769	0
3	10514	195.149775	1
3	10784	195.156913461538	0
3	10784	200.13615	1
3	10789	200.144519230769	0
3	10789	200.149775	1
3	11059	200.156913461538	0
3	11059	205.13615	1
3	11064	205.144519230769	0
3	11064	205.149775	1
3	11334	205.156913461538	0
3	11334	210.13615	1
3	11339	210.144519230769	0
3	11339	210.149775	1
3	11609	210.156913461538	0
3	11609	215.13615	1
3	11614	215.144519230769	0
3	11614	215.149775	1
3	11884	215.156913461538	0
3	11884	220.13615	1
3	11889	220.144519230769	0
3	11889	220.149775	1
3	12159	220.156913461538	0
3	12159	225.13615	1
3	12164	225.144519230769	0
3	12164	225.149775	1
3	12434	225.156913461538	0
3	12434	230.13615	1
3	12439	230.144519230769	0
3	12439	230.149775	1
3	12709	230.156913461538	0
3	12709	235.13615	1
3	12714	235.144519230769	0
3	12714	235.149775	1
3	12984	235.156913461538	0
3	12984	240.13615	1
3	12989	240.144519230769	0
3	12989	240.149775	1
3	13259	240.156913461538	0
3	13259	245.13615	1
3	13264	245.144519230769	0
3	13264	245.149775	1
3	13534	245.156913461538	0
3	13534	250.13615	1
3	13539	250.144519230769	0
3	13539	250.149775	1
3	13809	250.156913461538	0
3	13809	255.13615	1
3	13814	255.144519230769	0
3	13814	255.149775	1
3	14084	255.156913461538	0
3	14084	260.13615	1
3	14089	260.144519230769	0
3	14089	260.149775	1
3	14359	260.156913461538	0
3	14359	265.13615	1
3	14364	265.144519230769	0
3	14364	265.149775	1
3	14634	265.156913461538	0
3	14634	270.13615	1
3	14639	270.144519230769	0
3	14639	270.149775	1