version 3
run VeryLightTraffic_50-0-20260420-13:46:12-16152
attr configname VeryLightTraffic_50
attr datetime 20260420-13:46:12
attr datetimef 20260420-134612
attr experiment VeryLightTraffic_50
attr inifile omnetpp.ini
attr iterationvars ""
attr iterationvarsd ""
attr iterationvarsf ""
attr measurement ""
attr network DNP3NetworkTopology
attr processid 16152
attr repetition 0
attr replication #0
attr resultdir results
attr runnumber 0
attr seedset 0
config image-path ../../samples/inet4.5/images
config description "Very light traffic with 50 smart meters"
config *.numMeters 50
config *.distAuto.numMeters 50
config **.eventInterval 20s
config **.eventBytes 442
config network DNP3NetworkTopology
config sim-time-limit 350s
config output-scalar-file VeryLightTraffic_50.sca
config output-vector-file VeryLightTraffic_50.vec
config **.scalar-recording true
config **.vector-recording true
config **.result-recording-modes all
config *.distAuto.processingDelay 10ms
config **.totalPackets 500
config **.ackTimeout 2s
config **.stopGenerationTime 300s
config *.meter[*].meterId index

vector 0 DNP3NetworkTopology.meter[0].interface$o.channel busy:vector ETV
attr interpolationmode sample-hold
attr recordingmode vector
attr source channelBusy
vector 1 DNP3NetworkTopology.Concatenator.MeterInterface$o[0].channel busy:vector ETV
attr interpolationmode sample-hold
attr recordingmode vector
attr source channelBusy
vector 2 DNP3NetworkTopology.meter[1].interface$o.channel busy:vector ETV
attr interpolationmode sample-hold
attr recordingmode vector
attr source channelBusy
vector 3 DNP3NetworkTopology.Concatenator.MeterInterface$o[1].channel busy:vector ETV
attr interpolationmode sample-hold
attr recordingmode vector
attr source channelBusy
vector 4 DNP3NetworkTopology.meter[2].interface$o.channel busy:vector ETV
attr interpolationmode sample-hold
attr recordingmode vector
attr source channelBusy
vector 5 DNP3NetworkTopology.Concatenator.MeterInterface$o[2].channel busy:vector ETV
attr interpolationmode sample-hold
attr recordingmode vector
attr source channelBusy
vector 6 DNP3NetworkTopology.meter[3].interface$o.channel busy:vector ETV
attr interpolationmode sample-hold
attr recordingmode vector
attr source channelBusy
vector 7 DNP3NetworkTopology.Concatenator.MeterInterface$o[3].channel busy:vector ETV
attr interpolationmode sample-hold
attr recordingmode vector
attr source channelBusy
vector 8 DNP3NetworkTopology.meter[4].interface$o.channel busy:vector ETV
attr interpolationmode sample-hold
attr recordingmode vector
attr source channelBusy
vector 9 DNP3NetworkTopology.Concatenator.MeterInterface$o[4].channel busy:vector ETV
attr interpolationmode sample-hold
attr recordingmode vector
attr source channelBusy
vector 10 DNP3NetworkTopology.meter[5].interface$o.channel busy:vector ETV
attr interpolationmode sample-hold
attr recordingmode vector
attr source channelBusy
vector 11 DNP3NetworkTopology.Concatenator.MeterInterface$o[5].channel busy:vector ETV
attr interpolationmode sample-hold
attr recordingmode vector
attr source channelBusy
vector 12 DNP3NetworkTopology.meter[6].interface$o.channel busy:vector ETV
attr interpolationmode sample-hold
attr recordingmode vector
attr source channelBusy
vector 13 DNP3NetworkTopology.Concatenator.MeterInterface$o[6].channel busy:vector ETV
attr interpolationmode sample-hold
attr recordingmode vector
attr source channelBusy
vector 14 DNP3NetworkTopology.meter[7].interface$o.channel busy:vector ETV
attr interpolationmode sample-hold
attr recordingmode vector
attr source channelBusy
vector 15 DNP3NetworkTopology.Concatenator.MeterInterface$o[7].channel busy:vector ETV
attr interpolationmode sample-hold
attr recordingmode vector
attr source channelBusy
vector 16 DNP3NetworkTopology.meter[8].interface$o.channel busy:vector ETV
attr interpolationmode sample-hold
attr recordingmode vector
attr source channelBusy
vector 17 DNP3NetworkTopology.Concatenator.MeterInterface$o[8].channel busy:vector ETV
attr interpolationmode sample-hold
attr recordingmode vector
attr source channelBusy
vector 18 DNP3NetworkTopology.meter[9].interface$o.channel busy:vector ETV
attr interpolationmode sample-hold
attr recordingmode vector
attr source channelBusy
vector 19 DNP3NetworkTopology.Concatenator.MeterInterface$o[9].channel busy:vector ETV
attr interpolationmode sample-hold
attr recordingmode vector
attr source channelBusy
vector 20 DNP3NetworkTopology.meter[10].interface$o.channel busy:vector ETV
attr interpolationmode sample-hold
attr recordingmode vector
attr source channelBusy
vector 21 DNP3NetworkTopology.Concatenator.MeterInterface$o[10].channel busy:vector ETV
attr interpolationmode sample-hold
attr recordingmode vector
attr source channelBusy
vector 22 DNP3NetworkTopology.meter[11].interface$o.channel busy:vector ETV
attr interpolationmode sample-hold
attr recordingmode vector
attr source channelBusy
vector 23 DNP3NetworkTopology.Concatenator.MeterInterface$o[11].channel busy:vector ETV
attr interpolationmode sample-hold
attr recordingmode vector
attr source channelBusy
vector 24 DNP3NetworkTopology.meter[12].interface$o.channel busy:vector ETV
attr interpolationmode sample-hold
attr recordingmode vector
attr source channelBusy
vector 25 DNP3NetworkTopology.Concatenator.MeterInterface$o[12].channel busy:vector ETV
attr interpolationmode sample-hold
attr recordingmode vector
attr source channelBusy
vector 26 DNP3NetworkTopology.meter[13].interface$o.channel busy:vector ETV
attr interpolationmode sample-hold
attr recordingmode vector
attr source channelBusy
vector 27 DNP3NetworkTopology.Concatenator.MeterInterface$o[13].channel busy:vector ETV
attr interpolationmode sample-hold
attr recordingmode vector
attr source channelBusy
vector 28 DNP3NetworkTopology.meter[14].interface$o.channel busy:vector ETV
attr interpolationmode sample-hold
attr recordingmode vector
attr source channelBusy
vector 29 DNP3NetworkTopology.Concatenator.MeterInterface$o[14].channel busy:vector ETV
attr interpolationmode sample-hold
attr recordingmode vector
attr source channelBusy
vector 30 DNP3NetworkTopology.meter[15].interface$o.channel busy:vector ETV
attr interpolationmode sample-hold
attr recordingmode vector
attr source channelBusy
vector 31 DNP3NetworkTopology.Concatenator.MeterInterface$o[15].channel busy:vector ETV
attr interpolationmode sample-hold
attr recordingmode vector
attr source channelBusy
vector 32 DNP3NetworkTopology.meter[16].interface$o.channel busy:vector ETV
attr interpolationmode sample-hold
attr recordingmode vector
attr source channelBusy
vector 33 DNP3NetworkTopology.Concatenator.MeterInterface$o[16].channel busy:vector ETV
attr interpolationmode sample-hold
attr recordingmode vector
attr source channelBusy
vector 34 DNP3NetworkTopology.meter[17].interface$o.channel busy:vector ETV
attr interpolationmode sample-hold
attr recordingmode vector
attr source channelBusy
vector 35 DNP3NetworkTopology.Concatenator.MeterInterface$o[17].channel busy:vector ETV
attr interpolationmode sample-hold
attr recordingmode vector
attr source channelBusy
vector 36 DNP3NetworkTopology.meter[18].interface$o.channel busy:vector ETV
attr interpolationmode sample-hold
attr recordingmode vector
attr source channelBusy
vector 37 DNP3NetworkTopology.Concatenator.MeterInterface$o[18].channel busy:vector ETV
attr interpolationmode sample-hold
attr recordingmode vector
attr source channelBusy
vector 38 DNP3NetworkTopology.meter[19].interface$o.channel busy:vector ETV
attr interpolationmode sample-hold
attr recordingmode vector
attr source channelBusy
vector 39 DNP3NetworkTopology.Concatenator.MeterInterface$o[19].channel busy:vector ETV
attr interpolationmode sample-hold
attr recordingmode vector
attr source channelBusy
vector 40 DNP3NetworkTopology.meter[20].interface$o.channel busy:vector ETV
attr interpolationmode sample-hold
attr recordingmode vector
attr source channelBusy
vector 41 DNP3NetworkTopology.Concatenator.MeterInterface$o[20].channel busy:vector ETV
attr interpolationmode sample-hold
attr recordingmode vector
attr source channelBusy
vector 42 DNP3NetworkTopology.meter[21].interface$o.channel busy:vector ETV
attr interpolationmode sample-hold
attr recordingmode vector
attr source channelBusy
vector 43 DNP3NetworkTopology.Concatenator.MeterInterface$o[21].channel busy:vector ETV
attr interpolationmode sample-hold
attr recordingmode vector
attr source channelBusy
vector 44 DNP3NetworkTopology.meter[22].interface$o.channel busy:vector ETV
attr interpolationmode sample-hold
attr recordingmode vector
attr source channelBusy
vector 45 DNP3NetworkTopology.Concatenator.MeterInterface$o[22].channel busy:vector ETV
attr interpolationmode sample-hold
attr recordingmode vector
attr source channelBusy
vector 46 DNP3NetworkTopology.meter[23].interface$o.channel busy:vector ETV
attr interpolationmode sample-hold
attr recordingmode vector
attr source channelBusy
vector 47 DNP3NetworkTopology.Concatenator.MeterInterface$o[23].channel busy:vector ETV
attr interpolationmode sample-hold
attr recordingmode vector
attr source channelBusy
vector 48 DNP3NetworkTopology.meter[24].interface$o.channel busy:vector ETV
attr interpolationmode sample-hold
attr recordingmode vector
attr source channelBusy
vector 49 DNP3NetworkTopology.Concatenator.MeterInterface$o[24].channel busy:vector ETV
attr interpolationmode sample-hold
attr recordingmode vector
attr source channelBusy
vector 50 DNP3NetworkTopology.meter[25].interface$o.channel busy:vector ETV
attr interpolationmode sample-hold
attr recordingmode vector
attr source channelBusy
vector 51 DNP3NetworkTopology.Concatenator.MeterInterface$o[25].channel busy:vector ETV
attr interpolationmode sample-hold
attr recordingmode vector
attr source channelBusy
vector 52 DNP3NetworkTopology.meter[26].interface$o.channel busy:vector ETV
attr interpolationmode sample-hold
attr recordingmode vector
attr source channelBusy
vector 53 DNP3NetworkTopology.Concatenator.MeterInterface$o[26].channel busy:vector ETV
attr interpolationmode sample-hold
attr recordingmode vector
attr source channelBusy
vector 54 DNP3NetworkTopology.meter[27].interface$o.channel busy:vector ETV
attr interpolationmode sample-hold
attr recordingmode vector
attr source channelBusy
vector 55 DNP3NetworkTopology.Concatenator.MeterInterface$o[27].channel busy:vector ETV
attr interpolationmode sample-hold
attr recordingmode vector
attr source channelBusy
vector 56 DNP3NetworkTopology.meter[28].interface$o.channel busy:vector ETV
attr interpolationmode sample-hold
attr recordingmode vector
attr source channelBusy
vector 57 DNP3NetworkTopology.Concatenator.MeterInterface$o[28].channel busy:vector ETV
attr interpolationmode sample-hold
attr recordingmode vector
attr source channelBusy
vector 58 DNP3NetworkTopology.meter[29].interface$o.channel busy:vector ETV
attr interpolationmode sample-hold
attr recordingmode vector
attr source channelBusy
vector 59 DNP3NetworkTopology.Concatenator.MeterInterface$o[29].channel busy:vector ETV
attr interpolationmode sample-hold
attr recordingmode vector
attr source channelBusy
vector 60 DNP3NetworkTopology.meter[30].interface$o.channel busy:vector ETV
attr interpolationmode sample-hold
attr recordingmode vector
attr source channelBusy
vector 61 DNP3NetworkTopology.Concatenator.MeterInterface$o[30].channel busy:vector ETV
attr interpolationmode sample-hold
attr recordingmode vector
attr source channelBusy
vector 62 DNP3NetworkTopology.meter[31].interface$o.channel busy:vector ETV
attr interpolationmode sample-hold
attr recordingmode vector
attr source channelBusy
vector 63 DNP3NetworkTopology.Concatenator.MeterInterface$o[31].channel busy:vector ETV
attr interpolationmode sample-hold
attr recordingmode vector
attr source channelBusy
vector 64 DNP3NetworkTopology.meter[32].interface$o.channel busy:vector ETV
attr interpolationmode sample-hold
attr recordingmode vector
attr source channelBusy
vector 65 DNP3NetworkTopology.Concatenator.MeterInterface$o[32].channel busy:vector ETV
attr interpolationmode sample-hold
attr recordingmode vector
attr source channelBusy
vector 66 DNP3NetworkTopology.meter[33].interface$o.channel busy:vector ETV
attr interpolationmode sample-hold
attr recordingmode vector
attr source channelBusy
vector 67 DNP3NetworkTopology.Concatenator.MeterInterface$o[33].channel busy:vector ETV
attr interpolationmode sample-hold
attr recordingmode vector
attr source channelBusy
vector 68 DNP3NetworkTopology.meter[34].interface$o.channel busy:vector ETV
attr interpolationmode sample-hold
attr recordingmode vector
attr source channelBusy
vector 69 DNP3NetworkTopology.Concatenator.MeterInterface$o[34].channel busy:vector ETV
attr interpolationmode sample-hold
attr recordingmode vector
attr source channelBusy
vector 70 DNP3NetworkTopology.meter[35].interface$o.channel busy:vector ETV
attr interpolationmode sample-hold
attr recordingmode vector
attr source channelBusy
vector 71 DNP3NetworkTopology.Concatenator.MeterInterface$o[35].channel busy:vector ETV
attr interpolationmode sample-hold
attr recordingmode vector
attr source channelBusy
vector 72 DNP3NetworkTopology.meter[36].interface$o.channel busy:vector ETV
attr interpolationmode sample-hold
attr recordingmode vector
attr source channelBusy
vector 73 DNP3NetworkTopology.Concatenator.MeterInterface$o[36].channel busy:vector ETV
attr interpolationmode sample-hold
attr recordingmode vector
attr source channelBusy
vector 74 DNP3NetworkTopology.meter[37].interface$o.channel busy:vector ETV
attr interpolationmode sample-hold
attr recordingmode vector
attr source channelBusy
vector 75 DNP3NetworkTopology.Concatenator.MeterInterface$o[37].channel busy:vector ETV
attr interpolationmode sample-hold
attr recordingmode vector
attr source channelBusy
vector 76 DNP3NetworkTopology.meter[38].interface$o.channel busy:vector ETV
attr interpolationmode sample-hold
attr recordingmode vector
attr source channelBusy
vector 77 DNP3NetworkTopology.Concatenator.MeterInterface$o[38].channel busy:vector ETV
attr interpolationmode sample-hold
attr recordingmode vector
attr source channelBusy
vector 78 DNP3NetworkTopology.meter[39].interface$o.channel busy:vector ETV
attr interpolationmode sample-hold
attr recordingmode vector
attr source channelBusy
vector 79 DNP3NetworkTopology.Concatenator.MeterInterface$o[39].channel busy:vector ETV
attr interpolationmode sample-hold
attr recordingmode vector
attr source channelBusy
vector 80 DNP3NetworkTopology.meter[40].interface$o.channel busy:vector ETV
attr interpolationmode sample-hold
attr recordingmode vector
attr source channelBusy
vector 81 DNP3NetworkTopology.Concatenator.MeterInterface$o[40].channel busy:vector ETV
attr interpolationmode sample-hold
attr recordingmode vector
attr source channelBusy
vector 82 DNP3NetworkTopology.meter[41].interface$o.channel busy:vector ETV
attr interpolationmode sample-hold
attr recordingmode vector
attr source channelBusy
vector 83 DNP3NetworkTopology.Concatenator.MeterInterface$o[41].channel busy:vector ETV
attr interpolationmode sample-hold
attr recordingmode vector
attr source channelBusy
vector 84 DNP3NetworkTopology.meter[42].interface$o.channel busy:vector ETV
attr interpolationmode sample-hold
attr recordingmode vector
attr source channelBusy
vector 85 DNP3NetworkTopology.Concatenator.MeterInterface$o[42].channel busy:vector ETV
attr interpolationmode sample-hold
attr recordingmode vector
attr source channelBusy
vector 86 DNP3NetworkTopology.meter[43].interface$o.channel busy:vector ETV
attr interpolationmode sample-hold
attr recordingmode vector
attr source channelBusy
vector 87 DNP3NetworkTopology.Concatenator.MeterInterface$o[43].channel busy:vector ETV
attr interpolationmode sample-hold
attr recordingmode vector
attr source channelBusy
vector 88 DNP3NetworkTopology.meter[44].interface$o.channel busy:vector ETV
attr interpolationmode sample-hold
attr recordingmode vector
attr source channelBusy
vector 89 DNP3NetworkTopology.Concatenator.MeterInterface$o[44].channel busy:vector ETV
attr interpolationmode sample-hold
attr recordingmode vector
attr source channelBusy
vector 90 DNP3NetworkTopology.meter[45].interface$o.channel busy:vector ETV
attr interpolationmode sample-hold
attr recordingmode vector
attr source channelBusy
vector 91 DNP3NetworkTopology.Concatenator.MeterInterface$o[45].channel busy:vector ETV
attr interpolationmode sample-hold
attr recordingmode vector
attr source channelBusy
vector 92 DNP3NetworkTopology.meter[46].interface$o.channel busy:vector ETV
attr interpolationmode sample-hold
attr recordingmode vector
attr source channelBusy
vector 93 DNP3NetworkTopology.Concatenator.MeterInterface$o[46].channel busy:vector ETV
attr interpolationmode sample-hold
attr recordingmode vector
attr source channelBusy
vector 94 DNP3NetworkTopology.meter[47].interface$o.channel busy:vector ETV
attr interpolationmode sample-hold
attr recordingmode vector
attr source channelBusy
vector 95 DNP3NetworkTopology.Concatenator.MeterInterface$o[47].channel busy:vector ETV
attr interpolationmode sample-hold
attr recordingmode vector
attr source channelBusy
vector 96 DNP3NetworkTopology.meter[48].interface$o.channel busy:vector ETV
attr interpolationmode sample-hold
attr recordingmode vector
attr source channelBusy
vector 97 DNP3NetworkTopology.Concatenator.MeterInterface$o[48].channel busy:vector ETV
attr interpolationmode sample-hold
attr recordingmode vector
attr source channelBusy
vector 98 DNP3NetworkTopology.meter[49].interface$o.channel busy:vector ETV
attr interpolationmode sample-hold
attr recordingmode vector
attr source channelBusy
vector 99 DNP3NetworkTopology.Concatenator.MeterInterface$o[49].channel busy:vector ETV
attr interpolationmode sample-hold
attr recordingmode vector
attr source channelBusy
vector 100 DNP3NetworkTopology.Concatenator.DAInterface$o.channel busy:vector ETV
attr interpolationmode sample-hold
attr recordingmode vector
attr source channelBusy
vector 101 DNP3NetworkTopology.distAuto.interface$o.channel busy:vector ETV
attr interpolationmode sample-hold
attr recordingmode vector
attr source channelBusy
vector 102 DNP3NetworkTopology.Concatenator queueLength:vector ETV
attr recordingmode vector
attr source queueLength
attr title "Queue Length"
vector 103 DNP3NetworkTopology.distAuto packetDelay:vector ETV
attr recordingmode vector
attr source packetDelay
attr title "Packet Delay"
0	0	0	0
0	1	0	0
0	1	20	1
0	108	20.0544	0
0	108	20.131038461538	1
0	551	20.138176923076	0
0	551	40	1
0	658	40.0544	0
0	658	40.131038461538	1
0	1101	40.138176923076	0
0	1101	60	1
0	1208	60.0544	0
0	1208	60.131038461538	1
0	1651	60.138176923076	0
0	1651	80	1
0	1758	80.0544	0
0	1758	80.131038461538	1
0	2201	80.138176923076	0
0	2201	100	1
0	2308	100.0544	0
0	2308	100.131038461538	1
0	2751	100.138176923076	0
0	2751	120	1
0	2858	120.0544	0
0	2858	120.131038461538	1
0	3301	120.138176923076	0
0	3301	140	1
0	3408	140.0544	0
0	3408	140.131038461538	1
0	3851	140.138176923076	0
0	3851	160	1
0	3958	160.0544	0
0	3958	160.131038461538	1
0	4401	160.138176923076	0
0	4401	180	1
0	4508	180.0544	0
0	4508	180.131038461538	1
0	4951	180.138176923076	0
0	4951	200	1
0	5058	200.0544	0
0	5058	200.131038461538	1
0	5501	200.138176923076	0
0	5501	220	1
0	5608	220.0544	0
0	5608	220.131038461538	1
0	6051	220.138176923076	0
0	6051	240	1
0	6158	240.0544	0
0	6158	240.131038461538	1
0	6601	240.138176923076	0
0	6601	260	1
0	6708	260.0544	0
0	6708	260.131038461538	1
0	7151	260.138176923076	0
0	7151	280	1
0	7258	280.0544	0
0	7258	280.131038461538	1
0	7701	280.138176923076	0
1	0	0	0
1	103	0	0
1	103	20.108275	1
1	107	20.116644230769	0
1	107	20.1219	1
1	653	20.129038461538	0
1	653	40.108275	1
1	657	40.116644230769	0
1	657	40.1219	1
1	1203	40.129038461538	0
1	1203	60.108275	1
1	1207	60.116644230769	0
1	1207	60.1219	1
1	1753	60.129038461538	0
1	1753	80.108275	1
1	1757	80.116644230769	0
1	1757	80.1219	1
1	2303	80.129038461538	0
1	2303	100.108275	1
1	2307	100.116644230769	0
1	2307	100.1219	1
1	2853	100.129038461538	0
1	2853	120.108275	1
1	2857	120.116644230769	0
1	2857	120.1219	1
1	3403	120.129038461538	0
1	3403	140.108275	1
1	3407	140.116644230769	0
1	3407	140.1219	1
1	3953	140.129038461538	0
1	3953	160.108275	1
1	3957	160.116644230769	0
1	3957	160.1219	1
1	4503	160.129038461538	0
1	4503	180.108275	1
1	4507	180.116644230769	0
1	4507	180.1219	1
1	5053	180.129038461538	0
1	5053	200.108275	1
1	5057	200.116644230769	0
1	5057	200.1219	1
1	5603	200.129038461538	0
1	5603	220.108275	1
1	5607	220.116644230769	0
1	5607	220.1219	1
1	6153	220.129038461538	0
1	6153	240.108275	1
1	6157	240.116644230769	0
1	6157	240.1219	1
1	6703	240.129038461538	0
1	6703	260.108275	1
1	6707	260.116644230769	0
1	6707	260.1219	1
1	7253	260.129038461538	0
1	7253	280.108275	1
1	7257	280.116644230769	0
1	7257	280.1219	1
1	7701	280.129038461538	0
2	0	0	0
2	2	0	0
2	2	20	1
2	115	20.0544	0
2	115	20.158913461538	1
2	552	20.166051923076	0
2	552	40	1
2	665	40.0544	0
2	665	40.158913461538	1
2	1102	40.166051923076	0
2	1102	60	1
2	1215	60.0544	0
2	1215	60.158913461538	1
2	1652	60.166051923076	0
2	1652	80	1
2	1765	80.0544	0
2	1765	80.158913461538	1
2	2202	80.166051923076	0
2	2202	100	1
2	2315	100.0544	0
2	2315	100.158913461538	1
2	2752	100.166051923076	0
2	2752	120	1
2	2865	120.0544	0
2	2865	120.158913461538	1
2	3302	120.166051923076	0
2	3302	140	1
2	3415	140.0544	0
2	3415	140.158913461538	1
2	3852	140.166051923076	0
2	3852	160	1
2	3965	160.0544	0
2	3965	160.158913461538	1
2	4402	160.166051923076	0
2	4402	180	1
2	4515	180.0544	0
2	4515	180.158913461538	1
2	4952	180.166051923076	0
2	4952	200	1
2	5065	200.0544	0
2	5065	200.158913461538	1
2	5502	200.166051923076	0
2	5502	220	1
2	5615	220.0544	0
2	5615	220.158913461538	1
2	6052	220.166051923076	0
2	6052	240	1
2	6165	240.0544	0
2	6165	240.158913461538	1
2	6602	240.166051923076	0
2	6602	260	1
2	6715	260.0544	0
2	6715	260.158913461538	1
2	7152	260.166051923076	0
2	7152	280	1
2	7265	280.0544	0
2	7265	280.158913461538	1
2	7701	280.166051923076	0
3	0	0	0
3	109	0	0
3	109	20.13615	1
3	114	20.144519230769	0
3	114	20.149775	1
3	659	20.156913461538	0
3	659	40.13615	1
3	664	40.144519230769	0
3	664	40.149775	1
3	1209	40.156913461538	0
3	1209	60.13615	1
3	1214	60.144519230769	0
3	1214	60.149775	1
3	1759	60.156913461538	0
3	1759	80.13615	1
3	1764	80.144519230769	0
3	1764	80.149775	1
3	2309	80.156913461538	0
3	2309	100.13615	1
3	2314	100.144519230769	0
3	2314	100.149775	1
3	2859	100.156913461538	0
3	2859	120.13615	1
3	2864	120.144519230769	0
3	2864	120.149775	1
3	3409	120.156913461538	0
3	3409	140.13615	1
3	3414	140.144519230769	0
3	3414	140.149775	1
3	3959	140.156913461538	0
3	3959	160.13615	1
3	3964	160.144519230769	0
3	3964	160.149775	1
3	4509	160.156913461538	0
3	4509	180.13615	1
3	4514	180.144519230769	0
3	4514	180.149775	1
3	5059	180.156913461538	0
3	5059	200.13615	1
3	5064	200.144519230769	0
3	5064	200.149775	1
3	5609	200.156913461538	0
3	5609	220.13615	1
3	5614	220.144519230769	0
3	5614	220.149775	1
3	6159	220.156913461538	0
3	6159	240.13615	1
3	6164	240.144519230769	0
3	6164	240.149775	1
3	6709	240.156913461538	0
3	6709	260.13615	1
3	6714	260.144519230769	0
3	6714	260.149775	1
3	7259	260.156913461538	0
3	7259	280.13615	1
3	7264	280.144519230769	0
3	7264	280.149775	1
3	7701	280.156913461538	0
4	0	0	0
4	3	0	0
4	3	20	1
4	122	20.0544	0
4	122	20.186788461538	1
4	553	20.193926923076	0
4	553	40	1
4	672	40.0544	0
4	672	40.186788461538	1
4	1103	40.193926923076	0
4	1103	60	1
4	1222	60.0544	0
4	1222	60.186788461538	1
4	1653	60.193926923076	0
4	1653	80	1
4	1772	80.0544	0
4	1772	80.186788461538	1
4	2203	80.193926923076	0
4	2203	100	1
4	2322	100.0544	0
4	2322	100.186788461538	1
4	2753	100.193926923076	0
4	2753	120	1
4	2872	120.0544	0
4	2872	120.186788461538	1
4	3303	120.193926923076	0
4	3303	140	1
4	3422	140.0544	0
4	3422	140.186788461538	1
4	3853	140.193926923076	0
4	3853	160	1
4	3972	160.0544	0
4	3972	160.186788461538	1
4	4403	160.193926923076	0
4	4403	180	1
4	4522	180.0544	0
4	4522	180.186788461538	1
4	4953	180.193926923076	0
4	4953	200	1
4	5072	200.0544	0
4	5072	200.186788461538	1
4	5503	200.193926923076	0
4	5503	220	1
4	5622	220.0544	0
4	5622	220.186788461538	1
4	6053	220.193926923076	0
4	6053	240	1
4	6172	240.0544	0
4	6172	240.186788461538	1
4	6603	240.193926923076	0
4	6603	260	1
4	6722	260.0544	0
4	6722	260.186788461538	1
4	7153	260.193926923076	0
4	7153	280	1
4	7272	280.0544	0
4	7272	280.186788461538	1
4	7701	280.193926923076	0
5	0	0	0
5	116	0	0
5	116	20.164025	1
5	121	20.172394230769	0
5	121	20.17765	1
5	666	20.184788461538	0
5	666	40.164025	1
5	671	40.172394230769	0
5	671	40.17765	1
5	1216	40.184788461538	0
5	1216	60.164025	1
5	1221	60.172394230769	0
5	1221	60.17765	1
5	1766	60.184788461538	0
5	1766	80.164025	1
5	1771	80.172394230769	0
5	1771	80.17765	1
5	2316	80.184788461538	0
5	2316	100.164025	1
5	2321	100.172394230769	0
5	2321	100.17765	1
5	2866	100.184788461538	0
5	2866	120.164025	1
5	2871	120.172394230769	0
5	2871	120.17765	1
5	3416	120.184788461538	0
5	3416	140.164025	1
5	3421	140.172394230769	0
5	3421	140.17765	1
5	3966	140.184788461538	0
5	3966	160.164025	1
5	3971	160.172394230769	0
5	3971	160.17765	1
5	4516	160.184788461538	0
5	4516	180.164025	1
5	4521	180.172394230769	0
5	4521	180.17765	1
5	5066	180.184788461538	0
5	5066	200.164025	1
5	5071	200.172394230769	0
5	5071	200.17765	1
5	5616	200.184788461538	0
5	5616	220.164025	1
5	5621	220.172394230769	0
5	5621	220.17765	1
5	6166	220.184788461538	0
5	6166	240.164025	1
5	6171	240.172394230769	0
5	6171	240.17765	1
5	6716	240.184788461538	0
5	6716	260.164025	1
5	6721	260.172394230769	0
5	6721	260.17765	1
5	7266	260.184788461538	0
5	7266	280.164025	1
5	7271	280.172394230769	0
5	7271	280.17765	1
5	7701	280.184788461538	0
6	0	0	0
6	4	0	0
6	4	20	1
6	129	20.0544	0
6	129	20.214663461538	1
6	554	20.221801923076	0
6	554	40	1
6	679	40.0544	0
6	679	40.214663461538	1
6	1104	40.221801923076	0
6	1104	60	1
6	1229	60.0544	0
6	1229	60.214663461538	1
6	1654	60.221801923076	0
6	1654	80	1
6	1779	80.0544	0
6	1779	80.214663461538	1
6	2204	80.221801923076	0
6	2204	100	1
6	2329	100.0544	0
6	2329	100.214663461538	1
6	2754	100.221801923076	0
6	2754	120	1
6	2879	120.0544	0
6	2879	120.214663461538	1
6	3304	120.221801923076	0
6	3304	140	1
6	3429	140.0544	0
6	3429	140.214663461538	1
6	3854	140.221801923076	0
6	3854	160	1
6	3979	160.0544	0
6	3979	160.214663461538	1
6	4404	160.221801923076	0
6	4404	180	1
6	4529	180.0544	0
6	4529	180.214663461538	1
6	4954	180.221801923076	0
6	4954	200	1
6	5079	200.0544	0
6	5079	200.214663461538	1
6	5504	200.221801923076	0
6	5504	220	1
6	5629	220.0544	0
6	5629	220.214663461538	1
6	6054	220.221801923076	0
6	6054	240	1
6	6179	240.0544	0
6	6179	240.214663461538	1
6	6604	240.221801923076	0
6	6604	260	1
6	6729	260.0544	0
6	6729	260.214663461538	1
6	7154	260.221801923076	0
6	7154	280	1
6	7279	280.0544	0
6	7279	280.214663461538	1
6	7701	280.221801923076	0
7	0	0	0
7	123	0	0
7	123	20.1919	1
7	128	20.200269230769	0
7	128	20.205525	1
7	673	20.212663461538	0
7	673	40.1919	1
7	678	40.200269230769	0
7	678	40.205525	1
7	1223	40.212663461538	0
7	1223	60.1919	1
7	1228	60.200269230769	0
7	1228	60.205525	1
7	1773	60.212663461538	0
7	1773	80.1919	1
7	1778	80.200269230769	0
7	1778	80.205525	1
7	2323	80.212663461538	0
7	2323	100.1919	1
7	2328	100.200269230769	0
7	2328	100.205525	1
7	2873	100.212663461538	0
7	2873	120.1919	1
7	2878	120.200269230769	0
7	2878	120.205525	1
7	3423	120.212663461538	0
7	3423	140.1919	1
7	3428	140.200269230769	0
7	3428	140.205525	1
7	3973	140.212663461538	0
7	3973	160.1919	1
7	3978	160.200269230769	0
7	3978	160.205525	1
7	4523	160.212663461538	0
7	4523	180.1919	1
7	4528	180.200269230769	0
7	4528	180.205525	1
7	5073	180.212663461538	0
7	5073	200.1919	1
7	5078	200.200269230769	0
7	5078	200.205525	1
7	5623	200.212663461538	0
7	5623	220.1919	1
7	5628	220.200269230769	0
7	5628	220.205525	1
7	6173	220.212663461538	0
7	6173	240.1919	1
7	6178	240.200269230769	0
7	6178	240.205525	1
7	6723	240.212663461538	0
7	6723	260.1919	1
7	6728	260.200269230769	0
7	6728	260.205525	1
7	7273	260.212663461538	0
7	7273	280.1919	1
7	7278	280.200269230769	0
7	7278	280.205525	1
7	7701	280.212663461538	0
8	0	0	0
8	5	0	0
8	5	20	1
8	136	20.0544	0
8	136	20.242538461538	1
8	555	20.249676923076	0
8	555	40	1
8	686	40.0544	0
8	686	40.242538461538	1
8	1105	40.249676923076	0
8	1105	60	1
8	1236	60.0544	0
8	1236	60.242538461538	1
8	1655	60.249676923076	0
8	1655	80	1
8	1786	80.0544	0
8	1786	80.242538461538	1
8	2205	80.249676923076	0
8	2205	100	1
8	2336	100.0544	0
8	2336	100.242538461538	1
8	2755	100.249676923076	0
8	2755	120	1
8	2886	120.0544	0
8	2886	120.242538461538	1
8	3305	120.249676923076	0
8	3305	140	1
8	3436	140.0544	0
8	3436	140.242538461538	1
8	3855	140.249676923076	0
8	3855	160	1
8	3986	160.0544	0
8	3986	160.242538461538	1
8	4405	160.249676923076	0
8	4405	180	1
8	4536	180.0544	0
8	4536	180.242538461538	1
8	4955	180.249676923076	0
8	4955	200	1
8	5086	200.0544	0
8	5086	200.242538461538	1
8	5505	200.249676923076	0
8	5505	220	1
8	5636	220.0544	0
8	5636	220.242538461538	1
8	6055	220.249676923076	0
8	6055	240	1
8	6186	240.0544	0
8	6186	240.242538461538	1
8	6605	240.249676923076	0
8	6605	260	1
8	6736	260.0544	0
8	6736	260.242538461538	1
8	7155	260.249676923076	0
8	7155	280	1
8	7286	280.0544	0
8	7286	280.242538461538	1
8	7701	280.249676923076	0
9	0	0	0
9	130	0	0
9	130	20.219775	1
9	135	20.228144230769	0
9	135	20.2334	1
9	680	20.240538461538	0
9	680	40.219775	1
9	685	40.228144230769	0
9	685	40.2334	1
9	1230	40.240538461538	0
9	1230	60.219775	1
9	1235	60.228144230769	0
9	1235	60.2334	1
9	1780	60.240538461538	0
9	1780	80.219775	1
9	1785	80.228144230769	0
9	1785	80.2334	1
9	2330	80.240538461538	0
9	2330	100.219775	1
9	2335	100.228144230769	0
9	2335	100.2334	1
9	2880	100.240538461538	0
9	2880	120.219775	1
9	2885	120.228144230769	0
9	2885	120.2334	1
9	3430	120.240538461538	0
9	3430	140.219775	1
9	3435	140.228144230769	0
9	3435	140.2334	1
9	3980	140.240538461538	0
9	3980	160.219775	1
9	3985	160.228144230769	0
9	3985	160.2334	1
9	4530	160.240538461538	0
9	4530	180.219775	1
9	4535	180.228144230769	0
9	4535	180.2334	1
9	5080	180.240538461538	0